ITEM: TIMESTEP
10000
ITEM: NUMBER OF ATOMS
20
ITEM: BOX BOUNDS ff ff ff
-2.0803780000000001e+00 2.1116332000000000e+01
1.2307783600000000e+02 1.4681749700000000e+02
-1.0000000000000000e+01 1.0000000000000000e+01
ITEM: ATOMS id type x y z
1 1 9.41956 134.105 0.705624
2 1 10.06 134.579 0.230499
3 1 10.3794 135.032 -0.522239
4 1 10.7942 135.877 -0.597995
5 1 10.4591 136.65 -0.176848
6 1 9.68631 136.756 0.363262
7 1 9.02754 136.097 0.50867
8 1 9.05722 135.192 0.193281
9 1 9.13986 134.442 -0.393813
10 1 9.69652 133.672 -0.417613
11 1 10.4236 133.365 0.0915098
12 1 11.152 133.911 0.367726
13 1 11.4013 134.766 0.707216
14 1 10.9559 135.542 0.430041
15 1 10.0395 135.715 0.221509
16 1 9.4997 135.806 -0.548822
17 1 8.57654 135.825 -0.479532
18 1 8.133 135.005 -0.358244
19 1 7.99622 134.083 -0.156866
20 1 8.54867 133.731 0.52973
ITEM: TIMESTEP
10200
ITEM: NUMBER OF ATOMS
20
ITEM: BOX BOUNDS ff ff ff
-2.0803780000000001e+00 2.1116332000000000e+01
1.2307783600000000e+02 1.4681749700000000e+02
-1.0000000000000000e+01 1.0000000000000000e+01
ITEM: ATOMS id type x y z
1 1 9.48248 134.162 0.602799
2 1 10.2627 134.548 0.175965
3 1 10.3107 134.963 -0.669968
4 1 10.7974 135.78 -0.680153
5 1 10.3681 136.532 -0.295912
6 1 9.63877 136.654 0.288858
7 1 8.87664 136.082 0.398591
8 1 8.97009 135.161 0.311761
9 1 9.28886 134.62 -0.402263
10 1 9.83217 133.839 -0.51812
11 1 10.5161 133.253 -0.234102
12 1 11.0962 133.836 0.252404
13 1 11.5011 134.71 0.343669
14 1 10.9462 135.496 0.353429
15 1 10.012 135.565 0.229833
16 1 9.49383 135.754 -0.532248
17 1 8.57709 135.726 -0.729043
18 1 7.98089 135.117 -0.312249
19 1 8.03388 134.183 -0.320274
20 1 8.53903 134.077 0.472468
ITEM: TIMESTEP
10400
ITEM: NUMBER OF ATOMS
20
ITEM: BOX BOUNDS ff ff ff
-2.0803780000000001e+00 2.1116332000000000e+01
1.2307783600000000e+02 1.4681749700000000e+02
-1.0000000000000000e+01 1.0000000000000000e+01
ITEM: ATOMS id type x y z
1 1 9.53914 134.149 0.543432
2 1 10.3479 134.4 0.208938
3 1 10.463 134.863 -0.610563
4 1 10.7092 135.777 -0.615864
5 1 10.3644 136.559 -0.268526
6 1 9.57792 136.712 0.23311
7 1 8.88556 136.047 0.384907
8 1 9.08142 135.135 0.277075
9 1 9.26214 134.569 -0.425521
10 1 9.72008 133.785 -0.708129
11 1 10.545 133.5 -0.337815
12 1 11.2875 133.718 0.200324
13 1 11.4454 134.633 0.0927619
14 1 10.9562 135.291 0.507406
15 1 10.0911 135.545 0.255521
16 1 9.59 135.804 -0.476136
17 1 8.71844 135.558 -0.708199
18 1 7.89676 135.22 -0.428062
19 1 8.16095 134.328 -0.363923
20 1 8.60298 134.161 0.456239
ITEM: TIMESTEP
10600
ITEM: NUMBER OF ATOMS
20
ITEM: BOX BOUNDS ff ff ff
-2.0803780000000001e+00 2.1116332000000000e+01
1.2307783600000000e+02 1.4681749700000000e+02
-1.0000000000000000e+01 1.0000000000000000e+01
ITEM: ATOMS id type x y z
1 1 9.43675 133.91 0.549368
2 1 10.1085 134.43 0.144579
3 1 10.6739 134.921 -0.403442
4 1 10.7578 135.811 -0.618091
5 1 10.3939 136.565 -0.224133
6 1 9.60821 136.715 0.219164
7 1 9.1151 135.951 0.477249
8 1 9.0122 135.015 0.461566
9 1 9.17901 134.667 -0.38876
10 1 9.63788 133.846 -0.558472
11 1 10.5509 133.601 -0.461898
12 1 11.2853 133.812 0.0618033
13 1 11.5943 134.713 0.133854
14 1 10.9389 135.222 0.593794
15 1 10.1577 135.583 0.254541
16 1 9.66179 135.828 -0.512057
17 1 8.72852 135.741 -0.537222
18 1 7.9907 135.158 -0.571032
19 1 8.05018 134.386 -0.0652868
20 1 8.48837 133.788 0.521296
ITEM: TIMESTEP
10800
ITEM: NUMBER OF ATOMS
20
ITEM: BOX BOUNDS ff ff ff
-2.0803780000000001e+00 2.1116332000000000e+01
1.2307783600000000e+02 1.4681749700000000e+02
-1.0000000000000000e+01 1.0000000000000000e+01
ITEM: ATOMS id type x y z
1 1 9.39132 133.943 0.407697
2 1 10.129 134.516 0.34777
3 1 10.526 134.844 -0.427469
4 1 10.8066 135.729 -0.600708
5 1 10.446 136.515 -0.261672
6 1 9.62884 136.685 0.156841
7 1 9.15143 136.005 0.615701
8 1 8.99473 135.074 0.414988
9 1 9.18382 134.657 -0.393792
10 1 9.63829 133.925 -0.749171
11 1 10.4469 133.589 -0.412028
12 1 11.1645 133.946 0.0278746
13 1 11.6419 134.682 0.391767
14 1 10.9605 135.288 0.645257
15 1 10.1476 135.615 0.301426
16 1 9.5475 135.761 -0.398314
17 1 8.6102 135.876 -0.378333
18 1 8.19318 135.073 -0.37401
19 1 7.95094 134.569 0.372017
20 1 8.46691 133.805 0.438299
ITEM: TIMESTEP
11000
ITEM: NUMBER OF ATOMS
20
ITEM: BOX BOUNDS ff ff ff
-2.0803780000000001e+00 2.1116332000000000e+01
1.2307783600000000e+02 1.4681749700000000e+02
-1.0000000000000000e+01 1.0000000000000000e+01
ITEM: ATOMS id type x y z
1 1 9.3521 133.965 0.507702
2 1 10.1934 134.391 0.366603
3 1 10.3671 134.839 -0.462719
4 1 10.7208 135.701 -0.58241
5 1 10.3061 136.538 -0.461528
6 1 9.71274 136.786 0.249687
7 1 9.10005 136.168 0.640142
8 1 9.12032 135.272 0.3957
9 1 9.20667 134.682 -0.348923
10 1 9.58803 133.875 -0.597066
11 1 10.3261 133.469 -0.251983
12 1 11.1399 133.852 0.0848456
13 1 11.4509 134.551 0.608439
14 1 10.8378 135.292 0.523585
15 1 10.0656 135.736 0.265369
16 1 9.41294 135.962 -0.373456
17 1 8.47905 135.956 -0.236867
18 1 7.98896 135.158 -0.173447
19 1 7.84136 134.583 0.589037
20 1 8.43502 133.925 0.300731
ITEM: TIMESTEP
11200
ITEM: NUMBER OF ATOMS
20
ITEM: BOX BOUNDS ff ff ff
-2.0803780000000001e+00 2.1116332000000000e+01
1.2307783600000000e+02 1.4681749700000000e+02
-1.0000000000000000e+01 1.0000000000000000e+01
ITEM: ATOMS id type x y z
1 1 9.3042 134.058 0.606084
2 1 10.0913 134.466 0.309998
3 1 10.5381 134.932 -0.366493
4 1 10.6385 135.832 -0.675506
5 1 10.1437 136.621 -0.582806
6 1 9.87426 136.771 0.320642
7 1 9.15367 136.254 0.597779
8 1 8.89155 135.353 0.542341
9 1 9.15175 134.802 -0.178913
10 1 9.56722 134.025 -0.473591
11 1 10.1198 133.391 -0.104508
12 1 10.9904 133.672 0.111538
13 1 11.1072 134.458 0.660768
14 1 10.7503 135.307 0.738483
15 1 10.0069 135.608 0.257847
16 1 9.37559 135.781 -0.404178
17 1 8.46346 135.899 -0.305875
18 1 7.79058 135.349 0.109252
19 1 7.8071 134.641 0.725589
20 1 8.41378 134.024 0.293526
ITEM: TIMESTEP
11400
ITEM: NUMBER OF ATOMS
20
ITEM: BOX BOUNDS ff ff ff
-2.0803780000000001e+00 2.1116332000000000e+01
1.2307783600000000e+02 1.4681749700000000e+02
-1.0000000000000000e+01 1.0000000000000000e+01
ITEM: ATOMS id type x y z
1 1 9.27831 134.057 0.598501
2 1 10.0684 134.419 0.273981
3 1 10.3903 134.853 -0.510189
4 1 10.5667 135.756 -0.410732
5 1 10.1866 136.589 -0.622224
6 1 9.87005 136.638 0.274232
7 1 9.11021 136.242 0.65867
8 1 8.83844 135.337 0.57588
9 1 8.92317 134.766 -0.140717
10 1 9.47479 134.123 -0.527988
11 1 10.0158 133.477 -0.137196
12 1 10.8735 133.594 0.245052
13 1 11.0976 134.397 0.68247
14 1 10.7965 135.299 0.575136
15 1 9.90166 135.438 0.412703
16 1 9.4301 135.714 -0.335468
17 1 8.50577 135.696 -0.454307
18 1 7.88176 135.636 0.247924
19 1 7.73818 134.78 0.606077
20 1 8.34249 134.056 0.532727
ITEM: TIMESTEP
11600
ITEM: NUMBER OF ATOMS
20
ITEM: BOX BOUNDS ff ff ff
-2.0803780000000001e+00 2.1116332000000000e+01
1.2307783600000000e+02 1.4681749700000000e+02
-1.0000000000000000e+01 1.0000000000000000e+01
ITEM: ATOMS id type x y z
1 1 9.13529 133.92 0.718518
2 1 9.82284 134.445 0.33476
3 1 10.0144 134.792 -0.497928
4 1 10.4031 135.65 -0.482831
5 1 10.2496 136.566 -0.563876
6 1 9.71642 136.625 0.208107
7 1 9.02941 136.166 0.697433
8 1 8.90041 135.232 0.65508
9 1 8.79424 134.672 -0.0950821
10 1 9.21183 133.92 -0.458634
11 1 9.93902 133.338 -0.216044
12 1 10.7483 133.66 0.115588
13 1 11.155 134.351 0.564525
14 1 10.8057 135.228 0.653813
15 1 9.95366 135.587 0.507601
16 1 9.39231 135.682 -0.23052
17 1 8.49524 135.853 -0.503318
18 1 7.85236 135.851 0.192145
19 1 7.79217 134.925 0.354055
20 1 8.21133 134.174 0.70956
ITEM: TIMESTEP
11800
ITEM: NUMBER OF ATOMS
20
ITEM: BOX BOUNDS ff ff ff
-2.0803780000000001e+00 2.1116332000000000e+01
1.2307783600000000e+02 1.4681749700000000e+02
-1.0000000000000000e+01 1.0000000000000000e+01
ITEM: ATOMS id type x y z
1 1 9.01221 133.933 0.713145
2 1 9.69052 134.516 0.416562
3 1 10.1547 134.834 -0.359115
4 1 10.5482 135.633 -0.663526
5 1 10.1517 136.475 -0.464814
6 1 9.44194 136.669 0.102856
7 1 8.95162 136.072 0.622186
8 1 8.79608 135.134 0.553219
9 1 8.68257 134.757 -0.267509
10 1 8.97491 133.877 -0.465691
11 1 9.86063 133.507 -0.376999
12 1 10.6679 133.741 0.0638124
13 1 11.1036 134.423 0.515299
14 1 10.7172 135.271 0.575909
15 1 9.90336 135.636 0.303764
16 1 9.21661 135.659 -0.359721
17 1 8.33287 135.879 -0.644501
18 1 7.92851 135.963 0.194808
19 1 7.77136 135.037 0.268002
20 1 8.1666 134.219 0.461603
ITEM: TIMESTEP
12000
ITEM: NUMBER OF ATOMS
20
ITEM: BOX BOUNDS ff ff ff
-2.0803780000000001e+00 2.1116332000000000e+01
1.2307783600000000e+02 1.4681749700000000e+02
-1.0000000000000000e+01 1.0000000000000000e+01
ITEM: ATOMS id type x y z
1 1 8.92292 134.193 0.697203
2 1 9.72023 134.465 0.291581
3 1 10.1802 134.801 -0.432187
4 1 10.4949 135.659 -0.604247
5 1 10.0513 136.483 -0.446923
6 1 9.26594 136.724 -0.00893299
7 1 8.9403 136.159 0.660531
8 1 8.73487 135.28 0.365987
9 1 8.73705 134.804 -0.453535
10 1 8.97918 133.908 -0.667703
11 1 9.90587 133.753 -0.571962
12 1 10.6914 133.86 -0.0428322
13 1 11.0474 134.523 0.55039
14 1 10.6631 135.38 0.459162
15 1 9.77752 135.575 0.273492
16 1 9.26888 135.727 -0.500479
17 1 8.31906 135.886 -0.608196
18 1 7.83441 135.885 0.211237
19 1 7.66539 134.972 0.236655
20 1 8.07027 134.101 0.354717
ITEM: TIMESTEP
12200
ITEM: NUMBER OF ATOMS
20
ITEM: BOX BOUNDS ff ff ff
-2.0803780000000001e+00 2.1116332000000000e+01
1.2307783600000000e+02 1.4681749700000000e+02
-1.0000000000000000e+01 1.0000000000000000e+01
ITEM: ATOMS id type x y z
1 1 8.86899 134.251 0.548282
2 1 9.69198 134.476 0.17892
3 1 10.0662 135.048 -0.477045
4 1 10.3811 135.926 -0.523597
5 1 9.93759 136.677 -0.248478
6 1 9.028 136.815 -0.0356715
7 1 8.72032 136.206 0.596683
8 1 8.72637 135.333 0.290699
9 1 8.77696 134.697 -0.416221
10 1 9.01107 133.797 -0.447825
11 1 9.91903 133.568 -0.656464
12 1 10.591 134.016 -0.146918
13 1 11.0143 134.712 0.318628
14 1 10.5609 135.501 0.532686
15 1 9.72595 135.764 0.298822
16 1 9.27327 135.844 -0.53903
17 1 8.36883 136.106 -0.429619
18 1 7.62831 135.77 0.00145312
19 1 7.64858 134.869 0.267336
20 1 7.97107 134.016 0.43786
ITEM: TIMESTEP
12400
ITEM: NUMBER OF ATOMS
20
ITEM: BOX BOUNDS ff ff ff
-2.0803780000000001e+00 2.1116332000000000e+01
1.2307783600000000e+02 1.4681749700000000e+02
-1.0000000000000000e+01 1.0000000000000000e+01
ITEM: ATOMS id type x y z
1 1 9.05464 134.182 0.715507
2 1 9.66124 134.815 0.395724
3 1 10.0555 135.197 -0.373914
4 1 10.2345 136.12 -0.470539
5 1 9.93827 136.927 -0.111426
6 1 9.06592 136.898 0.280339
7 1 8.54915 136.179 0.572828
8 1 8.60095 135.278 0.309927
9 1 8.72527 134.654 -0.382403
10 1 9.00211 133.75 -0.455337
11 1 9.90295 133.637 -0.713704
12 1 10.6572 134.108 -0.478888
13 1 10.9031 134.797 0.110375
14 1 10.4663 135.485 0.592623
15 1 9.65186 135.917 0.363874
16 1 9.06239 136.032 -0.361468
17 1 8.1353 136.193 -0.548842
18 1 7.58063 135.599 -0.0556869
19 1 7.62264 134.764 0.342355
20 1 8.20638 134.012 0.411572
ITEM: TIMESTEP
12600
ITEM: NUMBER OF ATOMS
20
ITEM: BOX BOUNDS ff ff ff
-2.0803780000000001e+00 2.1116332000000000e+01
1.2307783600000000e+02 1.4681749700000000e+02
-1.0000000000000000e+01 1.0000000000000000e+01
ITEM: ATOMS id type x y z
1 1 9.13877 134.117 0.481891
2 1 9.72472 134.766 0.185983
3 1 9.94262 135.36 -0.49803
4 1 10.276 136.233 -0.596233
5 1 9.76506 136.881 -0.10284
6 1 9.07829 136.969 0.516082
7 1 8.50516 136.227 0.664082
8 1 8.61895 135.32 0.451131
9 1 8.70231 134.809 -0.327167
10 1 8.96655 133.957 -0.631344
11 1 9.90979 133.909 -0.654003
12 1 10.7259 134.389 -0.616293
13 1 10.788 134.752 0.232298
14 1 10.5356 135.644 0.455908
15 1 9.6355 135.895 0.444326
16 1 9.0963 136.119 -0.286358
17 1 8.19511 136.116 -0.524256
18 1 7.58155 135.564 -0.0682776
19 1 7.5172 134.76 0.423585
20 1 8.21078 134.122 0.329373
ITEM: TIMESTEP
12800
ITEM: NUMBER OF ATOMS
20
ITEM: BOX BOUNDS ff ff ff
-2.0803780000000001e+00 2.1116332000000000e+01
1.2307783600000000e+02 1.4681749700000000e+02
-1.0000000000000000e+01 1.0000000000000000e+01
ITEM: ATOMS id type x y z
1 1 9.05756 134.274 0.502944
2 1 9.68932 134.899 0.186592
3 1 9.91522 135.303 -0.593917
4 1 10.0498 136.252 -0.593189
5 1 9.81604 136.919 0.00856372
6 1 9.02084 136.973 0.551994
7 1 8.62666 136.14 0.733312
8 1 8.59791 135.234 0.478232
9 1 8.64675 134.976 -0.419434
10 1 9.03326 134.156 -0.672054
11 1 9.9575 134.084 -0.514553
12 1 10.7406 134.615 -0.532742
13 1 11.0436 134.79 0.33766
14 1 10.5296 135.588 0.223632
15 1 9.69543 135.888 0.510456
16 1 9.11587 136 -0.229709
17 1 8.25455 135.981 -0.587455
18 1 7.49787 135.641 -0.139624
19 1 7.46376 134.863 0.394718
20 1 8.13739 134.23 0.357316
ITEM: TIMESTEP
13000
ITEM: NUMBER OF ATOMS
20
ITEM: BOX BOUNDS ff ff ff
-2.0803780000000001e+00 2.1116332000000000e+01
1.2307783600000000e+02 1.4681749700000000e+02
-1.0000000000000000e+01 1.0000000000000000e+01
ITEM: ATOMS id type x y z
1 1 8.98085 134.147 0.397836
2 1 9.44875 134.932 0.211361
3 1 9.83906 135.32 -0.565178
4 1 10.1617 136.204 -0.539428
5 1 9.73331 136.964 -0.157858
6 1 9.06341 136.906 0.491757
7 1 8.41521 136.235 0.667077
8 1 8.45829 135.336 0.380108
9 1 8.53905 134.806 -0.406851
10 1 9.2825 134.302 -0.653803
11 1 10.0392 133.984 -0.175065
12 1 10.7077 134.639 -0.35328
13 1 11.295 134.99 0.291683
14 1 10.5272 135.519 0.282343
15 1 9.71517 135.986 0.419603
16 1 9.0854 136.106 -0.253853
17 1 8.28338 135.993 -0.716673
18 1 7.55953 135.709 -0.195765
19 1 7.43686 134.892 0.231687
20 1 8.02638 134.177 0.369733
ITEM: TIMESTEP
13200
ITEM: NUMBER OF ATOMS
20
ITEM: BOX BOUNDS ff ff ff
-2.0803780000000001e+00 2.1116332000000000e+01
1.2307783600000000e+02 1.4681749700000000e+02
-1.0000000000000000e+01 1.0000000000000000e+01
ITEM: ATOMS id type x y z
1 1 8.86495 134.21 0.485514
2 1 9.48548 134.891 0.283885
3 1 10.0129 135.254 -0.428053
4 1 10.1818 136.175 -0.478773
5 1 9.7094 136.922 -0.164714
6 1 9.09244 136.864 0.530604
7 1 8.36084 136.303 0.449348
8 1 8.47372 135.373 0.393289
9 1 8.61951 134.926 -0.396868
10 1 9.33187 134.389 -0.704775
11 1 9.9659 134.023 -0.120081
12 1 10.7537 134.491 -0.140985
13 1 11.2562 135.27 -0.0242908
14 1 10.5114 135.529 0.526609
15 1 9.67611 135.947 0.490254
16 1 9.09172 136.077 -0.248163
17 1 8.24526 135.911 -0.583003
18 1 7.4338 135.69 -0.183954
19 1 7.52929 134.799 0.109203
20 1 7.91777 134.048 0.524833
ITEM: TIMESTEP
13400
ITEM: NUMBER OF ATOMS
20
ITEM: BOX BOUNDS ff ff ff
-2.0803780000000001e+00 2.1116332000000000e+01
1.2307783600000000e+02 1.4681749700000000e+02
-1.0000000000000000e+01 1.0000000000000000e+01
ITEM: ATOMS id type x y z
1 1 8.75202 134.264 0.562323
2 1 9.58451 134.693 0.416836
3 1 9.89451 135.197 -0.315014
4 1 10.2325 136.057 -0.513642
5 1 9.89675 136.816 -0.0311404
6 1 9.02431 136.93 0.33384
7 1 8.3841 136.263 0.531233
8 1 8.67289 135.371 0.565815
9 1 8.64371 134.983 -0.287919
10 1 9.29005 134.381 -0.65107
11 1 10.186 134.108 -0.458142
12 1 10.8658 134.439 0.0919757
13 1 11.0039 135.357 -0.0822378
14 1 10.4525 135.773 0.568676
15 1 9.53302 135.878 0.431455
16 1 9.06815 136.026 -0.359961
17 1 8.1621 136.069 -0.629001
18 1 7.43914 135.629 -0.249732
19 1 7.58045 134.759 0.101615
20 1 7.84726 134.122 0.748326
ITEM: TIMESTEP
13600
ITEM: NUMBER OF ATOMS
20
ITEM: BOX BOUNDS ff ff ff
-2.0803780000000001e+00 2.1116332000000000e+01
1.2307783600000000e+02 1.4681749700000000e+02
-1.0000000000000000e+01 1.0000000000000000e+01
ITEM: ATOMS id type x y z
1 1 8.8902 134.162 0.629261
2 1 9.63334 134.683 0.383497
3 1 9.87613 135.208 -0.368416
4 1 10.1486 136.122 -0.468694
5 1 9.86551 136.93 -0.101899
6 1 9.02204 137.021 0.253167
7 1 8.4578 136.293 0.507332
8 1 8.4331 135.35 0.526581
9 1 8.73758 134.875 -0.218656
10 1 9.23317 134.11 -0.517204
11 1 10.16 134.227 -0.676787
12 1 10.7181 134.364 0.06629
13 1 10.8693 135.299 0.0384414
14 1 10.4771 135.982 0.599991
15 1 9.55346 135.962 0.513741
16 1 9.12703 136.066 -0.328789
17 1 8.24692 136.046 -0.659176
18 1 7.4328 135.772 -0.292169
19 1 7.60716 134.892 0.005077
20 1 7.97 134.209 0.539178
ITEM: TIMESTEP
13800
ITEM: NUMBER OF ATOMS
20
ITEM: BOX BOUNDS ff ff ff
-2.0803780000000001e+00 2.1116332000000000e+01
1.2307783600000000e+02 1.4681749700000000e+02
-1.0000000000000000e+01 1.0000000000000000e+01
ITEM: ATOMS id type x y z
1 1 8.98742 134.207 0.679369
2 1 9.71105 134.654 0.321208
3 1 9.76065 135.302 -0.362616
4 1 10.2714 136.07 -0.53016
5 1 9.7314 136.807 -0.284507
6 1 9.03249 137.022 0.306421
7 1 8.41316 136.416 0.662737
8 1 8.44951 135.508 0.432264
9 1 8.73234 134.989 -0.305106
10 1 9.09241 134.117 -0.381894
11 1 9.99317 134.182 -0.62268
12 1 10.7877 134.316 -0.151425
13 1 10.9531 135.182 0.205983
14 1 10.5787 135.97 0.58839
15 1 9.66069 136.057 0.41468
16 1 9.01131 136.09 -0.257629
17 1 8.21401 136.196 -0.713367
18 1 7.48504 135.878 -0.233706
19 1 7.62502 134.97 -0.0619728
20 1 8.12319 134.281 0.298242
ITEM: TIMESTEP
14000
ITEM: NUMBER OF ATOMS
20
ITEM: BOX BOUNDS ff ff ff
-2.0803780000000001e+00 2.1116332000000000e+01
1.2307783600000000e+02 1.4681749700000000e+02
-1.0000000000000000e+01 1.0000000000000000e+01
ITEM: ATOMS id type x y z
1 1 8.97998 134.36 0.547407
2 1 9.69756 134.926 0.279977
3 1 10.0435 135.303 -0.502172
4 1 9.99134 136.244 -0.627108
5 1 9.70434 137.116 -0.448792
6 1 9.12931 137.134 0.298999
7 1 8.62375 136.417 0.641765
8 1 8.53362 135.475 0.450457
9 1 8.57157 135.096 -0.417507
10 1 9.03061 134.3 -0.56161
11 1 9.95631 134.141 -0.680503
12 1 10.7414 134.548 -0.386351
13 1 10.9523 135.121 0.33449
14 1 10.4683 135.92 0.408776
15 1 9.53468 135.929 0.341871
16 1 8.97963 136.15 -0.370826
17 1 8.12948 136.322 -0.696459
18 1 7.6648 135.735 -0.0997775
19 1 7.50444 134.814 -0.0301557
20 1 8.11904 134.154 0.24475
ITEM: TIMESTEP
14200
ITEM: NUMBER OF ATOMS
20
ITEM: BOX BOUNDS ff ff ff
-2.0803780000000001e+00 2.1116332000000000e+01
1.2307783600000000e+02 1.4681749700000000e+02
-1.0000000000000000e+01 1.0000000000000000e+01
ITEM: ATOMS id type x y z
1 1 9.06067 134.518 0.377687
2 1 9.82251 134.931 -0.00888858
3 1 9.94305 135.593 -0.702464
4 1 10.0613 136.549 -0.730671
5 1 9.47539 137.231 -0.393408
6 1 9.13927 137.219 0.458357
7 1 8.59035 136.497 0.707886
8 1 8.66974 135.605 0.506293
9 1 8.55934 135.195 -0.330277
10 1 9.16454 134.55 -0.674052
11 1 9.98941 134.116 -0.746411
12 1 10.8024 134.533 -0.497699
13 1 10.8604 135.116 0.214952
14 1 10.4124 135.937 0.302532
15 1 9.51533 136.202 0.170249
16 1 8.87016 136.235 -0.498644
17 1 7.93 136.297 -0.555648
18 1 7.3951 135.591 -0.215713
19 1 7.41937 134.677 0.0419738
20 1 8.15349 134.224 0.432346
ITEM: TIMESTEP
14400
ITEM: NUMBER OF ATOMS
20
ITEM: BOX BOUNDS ff ff ff
-2.0803780000000001e+00 2.1116332000000000e+01
1.2307783600000000e+02 1.4681749700000000e+02
-1.0000000000000000e+01 1.0000000000000000e+01
ITEM: ATOMS id type x y z
1 1 9.28395 134.407 0.611315
2 1 9.56218 135.136 0.0670079
3 1 9.85106 135.627 -0.678466
4 1 10.1069 136.522 -0.664539
5 1 9.56396 137.239 -0.44139
6 1 9.13647 137.355 0.418794
7 1 8.63321 136.597 0.57097
8 1 8.63202 135.665 0.475575
9 1 8.59943 135.21 -0.364982
10 1 9.05383 134.436 -0.673557
11 1 9.9629 134.207 -0.692839
12 1 10.7594 134.583 -0.379688
13 1 11.1141 135.35 0.0064331
14 1 10.5156 136.032 0.200416
15 1 9.61526 136.234 0.264846
16 1 8.92764 136.302 -0.391535
17 1 8.01308 136.116 -0.308406
18 1 7.25242 135.585 -0.207139
19 1 7.66032 134.854 0.245142
20 1 8.35298 134.387 0.667657
ITEM: TIMESTEP
14600
ITEM: NUMBER OF ATOMS
20
ITEM: BOX BOUNDS ff ff ff
-2.0803780000000001e+00 2.1116332000000000e+01
1.2307783600000000e+02 1.4681749700000000e+02
-1.0000000000000000e+01 1.0000000000000000e+01
ITEM: ATOMS id type x y z
1 1 9.40957 134.432 0.653194
2 1 9.79891 135.126 0.200468
3 1 10.0415 135.645 -0.573542
4 1 9.98299 136.565 -0.733301
5 1 9.64064 137.372 -0.361331
6 1 8.78799 137.25 0.0481295
7 1 8.54893 136.587 0.673502
8 1 8.7205 135.668 0.599273
9 1 8.75511 135.232 -0.274646
10 1 8.9812 134.378 -0.630497
11 1 9.9196 134.407 -0.69889
12 1 10.722 134.757 -0.317049
13 1 11.0642 135.621 -0.175807
14 1 10.4511 136.102 0.361028
15 1 9.56702 136.407 0.197969
16 1 8.87457 136.27 -0.433035
17 1 7.95018 136.199 -0.325049
18 1 7.27777 135.578 -0.164703
19 1 7.65463 135.083 0.542566
20 1 8.4895 134.6 0.514165
ITEM: TIMESTEP
14800
ITEM: NUMBER OF ATOMS
20
ITEM: BOX BOUNDS ff ff ff
-2.0803780000000001e+00 2.1116332000000000e+01
1.2307783600000000e+02 1.4681749700000000e+02
-1.0000000000000000e+01 1.0000000000000000e+01
ITEM: ATOMS id type x y z
1 1 9.34081 134.531 0.433314
2 1 9.88 135.269 0.268946
3 1 9.91737 135.688 -0.566687
4 1 10.0592 136.607 -0.690193
5 1 9.54699 137.24 -0.257997
6 1 8.64227 137.298 0.0209455
7 1 8.45875 136.494 0.438067
8 1 8.78137 135.655 0.603856
9 1 8.88918 135.222 -0.2164
10 1 8.99054 134.388 -0.615405
11 1 9.91982 134.522 -0.501811
12 1 10.7388 134.951 -0.479723
13 1 11.0969 135.754 -0.138321
14 1 10.4968 136.273 0.394139
15 1 9.54149 136.327 0.274872
16 1 9.04892 136.28 -0.522723
17 1 8.11834 136.134 -0.585773
18 1 7.58216 135.553 -0.0879956
19 1 7.6825 135.091 0.710803
20 1 8.41995 134.505 0.614888
ITEM: TIMESTEP
15000
ITEM: NUMBER OF ATOMS
20
ITEM: BOX BOUNDS ff ff ff
-2.0803780000000001e+00 2.1116332000000000e+01
1.2307783600000000e+02 1.4681749700000000e+02
-1.0000000000000000e+01 1.0000000000000000e+01
ITEM: ATOMS id type x y z
1 1 9.48101 134.696 0.744382
2 1 9.90953 135.315 0.231941
3 1 10.0167 135.819 -0.553948
4 1 10.1559 136.738 -0.687533
5 1 9.54239 137.42 -0.41332
6 1 8.72554 137.313 0.0670244
7 1 8.34113 136.522 0.43726
8 1 8.70846 135.661 0.536651
9 1 8.66519 135.091 -0.214217
10 1 9.13258 134.271 -0.40738
11 1 9.99449 134.492 -0.693818
12 1 10.8077 134.885 -0.50124
13 1 10.9803 135.702 -0.109304
14 1 10.4251 136.323 0.326134
15 1 9.50603 136.418 0.438332
16 1 9.03833 136.306 -0.380083
17 1 8.18948 136.042 -0.703276
18 1 7.71048 135.789 0.063101
19 1 7.76485 134.98 0.552814
20 1 8.56978 134.483 0.67134
ITEM: TIMESTEP
15200
ITEM: NUMBER OF ATOMS
20
ITEM: BOX BOUNDS ff ff ff
-2.0803780000000001e+00 2.1116332000000000e+01
1.2307783600000000e+02 1.4681749700000000e+02
-1.0000000000000000e+01 1.0000000000000000e+01
ITEM: ATOMS id type x y z
1 1 9.39163 134.813 0.580997
2 1 9.91353 135.445 0.108026
3 1 10.0459 135.967 -0.649213
4 1 10.0799 136.908 -0.70221
5 1 9.32061 137.453 -0.473054
6 1 8.6309 137.282 0.110745
7 1 8.47271 136.587 0.728168
8 1 8.64205 135.703 0.414072
9 1 8.82383 135.171 -0.313618
10 1 9.14496 134.296 -0.43002
11 1 10.047 134.504 -0.589438
12 1 10.967 134.746 -0.494996
13 1 10.9583 135.614 -0.0933782
14 1 10.5207 136.323 0.336995
15 1 9.58171 136.444 0.316565
16 1 9.00156 136.412 -0.432835
17 1 8.12523 136.141 -0.383426
18 1 7.45496 135.651 0.0164937
19 1 7.88001 134.902 0.389024
20 1 8.61046 134.3 0.514349
ITEM: TIMESTEP
15400
ITEM: NUMBER OF ATOMS
20
ITEM: BOX BOUNDS ff ff ff
-2.0803780000000001e+00 2.1116332000000000e+01
1.2307783600000000e+02 1.4681749700000000e+02
-1.0000000000000000e+01 1.0000000000000000e+01
ITEM: ATOMS id type x y z
1 1 9.47467 134.81 0.737798
2 1 9.90698 135.341 0.0891461
3 1 9.97996 135.933 -0.652729
4 1 10.0459 136.869 -0.72082
5 1 9.3685 137.461 -0.45439
6 1 8.59006 137.315 0.0605954
7 1 8.49662 136.601 0.659755
8 1 8.72759 135.715 0.47485
9 1 8.75717 135.278 -0.393613
10 1 9.19716 134.487 -0.633248
11 1 10.1345 134.397 -0.730121
12 1 10.944 134.752 -0.407769
13 1 10.9482 135.618 -0.0468281
14 1 10.4658 136.34 0.3341
15 1 9.53453 136.411 0.325816
16 1 8.9045 136.342 -0.372935
17 1 7.95216 136.264 -0.255588
18 1 7.45223 135.453 -0.34732
19 1 7.96092 134.997 0.311823
20 1 8.65286 134.415 0.491175
ITEM: TIMESTEP
15600
ITEM: NUMBER OF ATOMS
20
ITEM: BOX BOUNDS ff ff ff
-2.0803780000000001e+00 2.1116332000000000e+01
1.2307783600000000e+02 1.4681749700000000e+02
-1.0000000000000000e+01 1.0000000000000000e+01
ITEM: ATOMS id type x y z
1 1 9.58658 134.716 0.694729
2 1 9.98587 135.355 0.105664
3 1 9.95604 135.863 -0.690983
4 1 9.99651 136.81 -0.720623
5 1 9.3983 137.408 -0.346756
6 1 8.64866 137.411 0.224614
7 1 8.39255 136.648 0.700908
8 1 8.68752 135.78 0.548286
9 1 8.72167 135.366 -0.27275
10 1 9.30802 134.644 -0.389053
11 1 10.1797 134.356 -0.559008
12 1 10.8682 134.856 -0.15803
13 1 11.0652 135.762 -0.11412
14 1 10.5577 136.175 0.568198
15 1 9.71064 136.406 0.26295
16 1 8.96023 136.41 -0.308735
17 1 8.01738 136.237 -0.328863
18 1 7.64328 135.386 -0.505031
19 1 7.79823 134.825 0.245734
20 1 8.66008 134.637 0.580685
ITEM: TIMESTEP
15800
ITEM: NUMBER OF ATOMS
20
ITEM: BOX BOUNDS ff ff ff
-2.0803780000000001e+00 2.1116332000000000e+01
1.2307783600000000e+02 1.4681749700000000e+02
-1.0000000000000000e+01 1.0000000000000000e+01
ITEM: ATOMS id type x y z
1 1 9.4171 134.731 0.667083
2 1 9.8642 135.26 0.0762868
3 1 10.05 135.887 -0.603844
4 1 9.84427 136.798 -0.724995
5 1 9.4175 137.54 -0.266937
6 1 8.74539 137.484 0.367794
7 1 8.33202 136.672 0.623169
8 1 8.51948 135.757 0.456264
9 1 8.83222 135.22 -0.247361
10 1 9.33141 134.472 -0.495852
11 1 10.2689 134.377 -0.344075
12 1 11.0028 134.919 -0.124504
13 1 11.1162 135.849 -0.0305804
14 1 10.5832 136.347 0.58164
15 1 9.70813 136.496 0.340538
16 1 8.95958 136.467 -0.231574
17 1 8.05241 136.341 -0.497504
18 1 7.5844 135.541 -0.359223
19 1 7.80615 134.708 -0.0393139
20 1 8.50059 134.684 0.599304
ITEM: TIMESTEP
16000
ITEM: NUMBER OF ATOMS
20
ITEM: BOX BOUNDS ff ff ff
-2.0803780000000001e+00 2.1116332000000000e+01
1.2307783600000000e+02 1.4681749700000000e+02
-1.0000000000000000e+01 1.0000000000000000e+01
ITEM: ATOMS id type x y z
1 1 9.26302 134.776 0.577038
2 1 9.91011 135.375 0.243778
3 1 10.0349 136.035 -0.414804
4 1 10.0099 136.94 -0.638392
5 1 9.49073 137.577 -0.221867
6 1 8.95298 137.311 0.48161
7 1 8.33583 136.631 0.627405
8 1 8.47369 135.73 0.410482
9 1 8.7539 135.269 -0.361328
10 1 9.41104 134.617 -0.582296
11 1 10.2505 134.245 -0.263577
12 1 10.8623 134.936 -0.133327
13 1 11.0505 135.749 0.289685
14 1 10.6796 136.616 0.444515
15 1 9.75087 136.605 0.405992
16 1 9.0832 136.492 -0.242165
17 1 8.17506 136.524 -0.467581
18 1 7.70213 135.714 -0.449163
19 1 7.70472 134.826 -0.0767111
20 1 8.35331 134.539 0.558044
ITEM: TIMESTEP
16200
ITEM: NUMBER OF ATOMS
20
ITEM: BOX BOUNDS ff ff ff
-2.0803780000000001e+00 2.1116332000000000e+01
1.2307783600000000e+02 1.4681749700000000e+02
-1.0000000000000000e+01 1.0000000000000000e+01
ITEM: ATOMS id type x y z
1 1 9.12621 134.825 0.70496
2 1 9.74012 135.425 0.334705
3 1 10.2072 135.96 -0.279397
4 1 10.1399 136.896 -0.457823
5 1 9.50908 137.531 -0.0799325
6 1 8.73865 137.455 0.470109
7 1 8.45165 136.609 0.735781
8 1 8.61933 135.718 0.470596
9 1 8.85301 135.405 -0.396716
10 1 9.65651 135.023 -0.746677
11 1 10.1776 134.303 -0.481708
12 1 10.7656 134.885 -0.0505014
13 1 10.9735 135.669 0.453048
14 1 10.7579 136.579 0.53842
15 1 9.81993 136.617 0.665761
16 1 9.20723 136.505 -0.0337488
17 1 8.42858 136.592 -0.557791
18 1 7.84331 135.862 -0.486776
19 1 7.71317 135.091 0.0118687
20 1 8.28403 134.519 0.454255
ITEM: TIMESTEP
16400
ITEM: NUMBER OF ATOMS
20
ITEM: BOX BOUNDS ff ff ff
-2.0803780000000001e+00 2.1116332000000000e+01
1.2307783600000000e+02 1.4681749700000000e+02
-1.0000000000000000e+01 1.0000000000000000e+01
ITEM: ATOMS id type x y z
1 1 9.24224 134.786 0.607814
2 1 9.79816 135.511 0.442382
3 1 10.2969 136.084 -0.130569
4 1 10.223 136.991 -0.376385
5 1 9.56404 137.499 0.0714051
6 1 8.66811 137.511 0.381047
7 1 8.29094 136.705 0.644151
8 1 8.50345 135.828 0.468169
9 1 8.84125 135.387 -0.299273
10 1 9.68182 135.187 -0.676121
11 1 10.2605 134.454 -0.573543
12 1 10.7265 134.986 0.0691188
13 1 11.0577 135.708 0.542197
14 1 10.7526 136.571 0.741722
15 1 9.81095 136.611 0.694473
16 1 9.26162 136.529 -0.0360999
17 1 8.5696 136.638 -0.63182
18 1 7.92309 135.951 -0.456491
19 1 7.69007 135.174 0.00640836
20 1 8.35117 134.588 0.358167
ITEM: TIMESTEP
16600
ITEM: NUMBER OF ATOMS
20
ITEM: BOX BOUNDS ff ff ff
-2.0803780000000001e+00 2.1116332000000000e+01
1.2307783600000000e+02 1.4681749700000000e+02
-1.0000000000000000e+01 1.0000000000000000e+01
ITEM: ATOMS id type x y z
1 1 9.29064 134.879 0.564058
2 1 9.98925 135.5 0.485094
3 1 10.2506 136.108 -0.175773
4 1 10.2658 137.075 -0.164172
5 1 9.63077 137.717 0.107577
6 1 8.79646 137.421 0.38951
7 1 8.1407 136.757 0.516378
8 1 8.57411 135.931 0.580621
9 1 8.96321 135.608 -0.194671
10 1 9.74814 135.212 -0.542667
11 1 10.5265 134.685 -0.502316
12 1 10.9969 134.959 0.257191
13 1 11.1086 135.819 0.626623
14 1 10.6646 136.604 0.731517
15 1 9.73269 136.775 0.741551
16 1 9.29218 136.635 -0.0839019
17 1 8.48416 136.68 -0.537993
18 1 7.8245 136.032 -0.35942
19 1 7.70289 135.143 -0.0649986
20 1 8.39595 134.677 0.362495
ITEM: TIMESTEP
16800
ITEM: NUMBER OF ATOMS
20
ITEM: BOX BOUNDS ff ff ff
-2.0803780000000001e+00 2.1116332000000000e+01
1.2307783600000000e+02 1.4681749700000000e+02
-1.0000000000000000e+01 1.0000000000000000e+01
ITEM: ATOMS id type x y z
1 1 9.29737 135.012 0.682141
2 1 9.87582 135.705 0.399468
3 1 10.2245 136.247 -0.285763
4 1 10.1823 137.178 -0.350635
5 1 9.5325 137.75 0.00762619
6 1 8.77545 137.584 0.505742
7 1 8.34095 136.746 0.62022
8 1 8.76286 135.902 0.602219
9 1 9.03871 135.559 -0.232745
10 1 9.77541 135.153 -0.644284
11 1 10.655 134.918 -0.367484
12 1 11.1538 134.94 0.418553
13 1 11.109 135.849 0.670319
14 1 10.6799 136.704 0.71014
15 1 9.75165 136.723 0.627536
16 1 9.12372 136.65 -0.0796786
17 1 8.38524 136.637 -0.687516
18 1 7.71719 136.038 -0.37554
19 1 7.82546 135.237 0.144797
20 1 8.48503 134.646 0.373166
ITEM: TIMESTEP
17000
ITEM: NUMBER OF ATOMS
20
ITEM: BOX BOUNDS ff ff ff
-2.0803780000000001e+00 2.1116332000000000e+01
1.2307783600000000e+02 1.4681749700000000e+02
-1.0000000000000000e+01 1.0000000000000000e+01
ITEM: ATOMS id type x y z
1 1 9.5479 134.939 0.642992
2 1 9.97333 135.725 0.384574
3 1 10.0668 136.328 -0.324568
4 1 10.0034 137.237 -0.543964
5 1 9.34402 137.835 -0.18551
6 1 8.77534 137.621 0.538422
7 1 8.40377 136.766 0.586914
8 1 8.88816 135.95 0.419472
9 1 8.93415 135.362 -0.284929
10 1 9.80624 135.201 -0.615202
11 1 10.5911 134.991 -0.133159
12 1 11.1823 135.087 0.581017
13 1 11.0764 136.015 0.699831
14 1 10.6506 136.85 0.576925
15 1 9.7008 136.971 0.484481
16 1 9.09098 136.777 -0.208419
17 1 8.36359 136.473 -0.730219
18 1 7.75413 135.994 -0.197482
19 1 7.99034 135.225 0.27511