ITEM: TIMESTEP
10000
ITEM: NUMBER OF ATOMS
23
ITEM: BOX BOUNDS ff ff ff
1.7969849000000000e+01 4.1484205000000003e+01
1.2223822600000000e+02 1.4610820100000001e+02
-1.0000000000000000e+01 1.0000000000000000e+01
ITEM: ATOMS id type x y z
1 1 28.5712 132.415 -0.205899
2 1 29.4638 132.545 -0.357377
3 1 30.0976 133.262 -0.416765
4 1 30.0541 133.952 0.260165
5 1 29.2828 134.547 0.278007
6 1 29.0519 135.2 -0.401532
7 1 29.5064 136.024 -0.463532
8 1 30.4186 135.974 -0.629881
9 1 31.3726 135.892 -0.714057
10 1 31.4077 134.982 -0.530524
11 1 31.2022 134.187 -0.0458294
12 1 31.1678 133.333 0.351843
13 1 30.3759 132.843 0.509567
14 1 29.485 132.985 0.707932
15 1 29.0174 133.519 0.111341
16 1 29.1753 133.959 -0.70926
17 1 29.9514 134.497 -0.66159
18 1 30.351 134.98 0.0208854
19 1 29.7304 135.521 0.490025
20 1 28.803 135.418 0.64225
21 1 28.2551 134.652 0.668873
22 1 27.9223 133.922 0.180423
23 1 27.8393 133.013 -0.0631359
ITEM: TIMESTEP
10200
ITEM: NUMBER OF ATOMS
23
ITEM: BOX BOUNDS ff ff ff
1.7969849000000000e+01 4.1484205000000003e+01
1.2223822600000000e+02 1.4610820100000001e+02
-1.0000000000000000e+01 1.0000000000000000e+01
ITEM: ATOMS id type x y z
1 1 28.5895 132.564 -0.309514
2 1 29.5325 132.522 -0.441478
3 1 29.9969 133.317 -0.585747
4 1 30.0259 133.828 0.191113
5 1 29.362 134.473 0.354155
6 1 29.0918 135.122 -0.293305
7 1 29.5682 135.86 -0.613964
8 1 30.4586 136.127 -0.7209
9 1 31.3459 135.821 -0.649131
10 1 31.5587 134.875 -0.668017
11 1 31.0801 134.273 -0.11311
12 1 30.9661 133.615 0.55101
13 1 30.4203 132.855 0.670213
14 1 29.4873 132.907 0.660231
15 1 29.0201 133.462 0.0835981
16 1 29.0878 134.051 -0.637447
17 1 29.911 134.539 -0.723519
18 1 30.2707 134.987 0.0069184
19 1 29.795 135.484 0.626758
20 1 28.8438 135.405 0.687997
21 1 28.2845 134.683 0.516295
22 1 27.9918 133.847 0.18091
23 1 27.9648 132.903 0.273699
ITEM: TIMESTEP
10400
ITEM: NUMBER OF ATOMS
23
ITEM: BOX BOUNDS ff ff ff
1.7969849000000000e+01 4.1484205000000003e+01
1.2223822600000000e+02 1.4610820100000001e+02
-1.0000000000000000e+01 1.0000000000000000e+01
ITEM: ATOMS id type x y z
1 1 28.6581 132.425 -0.37263
2 1 29.5701 132.401 -0.540567
3 1 29.9378 133.276 -0.524817
4 1 30.0433 133.943 0.128643
5 1 29.3392 134.499 0.365177
6 1 29.0643 135.109 -0.270207
7 1 29.5458 135.832 -0.623473
8 1 30.4228 136.137 -0.54925
9 1 31.2291 135.718 -0.733447
10 1 31.5273 134.836 -0.710671
11 1 31.1421 134.138 -0.224603
12 1 31.2208 133.655 0.576678
13 1 30.5579 133.008 0.406386
14 1 29.6421 132.902 0.552041
15 1 29.0453 133.477 0.080786
16 1 29.2286 134.08 -0.630547
17 1 30.007 134.62 -0.709798
18 1 30.2642 135.126 0.0303407
19 1 29.6855 135.47 0.683251
20 1 28.7706 135.32 0.746151
21 1 28.22 134.686 0.343694
22 1 27.9945 133.77 0.467285
23 1 28.1656 132.832 0.305794
ITEM: TIMESTEP
10600
ITEM: NUMBER OF ATOMS
23
ITEM: BOX BOUNDS ff ff ff
1.7969849000000000e+01 4.1484205000000003e+01
1.2223822600000000e+02 1.4610820100000001e+02
-1.0000000000000000e+01 1.0000000000000000e+01
ITEM: ATOMS id type x y z
1 1 28.7809 132.39 -0.211442
2 1 29.5754 132.654 -0.649431
3 1 30.1579 133.375 -0.66348
4 1 30.1172 133.896 0.120402
5 1 29.393 134.482 0.278715
6 1 29.0035 135.16 -0.259874
7 1 29.4052 135.981 -0.386589
8 1 30.3216 136.18 -0.487123
9 1 31.0202 135.609 -0.696669
10 1 31.4317 134.768 -0.67966
11 1 31.2038 133.95 -0.296398
12 1 31.1899 133.495 0.529434
13 1 30.532 132.845 0.426007
14 1 29.6052 133.042 0.520532
15 1 29.1034 133.418 -0.13847
16 1 29.3545 134.105 -0.740862
17 1 30.0111 134.76 -0.609264
18 1 30.2907 135.166 0.181225
19 1 29.6188 135.64 0.614987
20 1 28.7339 135.358 0.727163
21 1 28.2208 134.576 0.497036
22 1 28.1696 133.662 0.676952
23 1 28.0903 132.839 0.232006
ITEM: TIMESTEP
10800
ITEM: NUMBER OF ATOMS
23
ITEM: BOX BOUNDS ff ff ff
1.7969849000000000e+01 4.1484205000000003e+01
1.2223822600000000e+02 1.4610820100000001e+02
-1.0000000000000000e+01 1.0000000000000000e+01
ITEM: ATOMS id type x y z
1 1 28.8994 132.353 -0.208281
2 1 29.5567 132.849 -0.692114
3 1 30.3027 133.435 -0.642821
4 1 30.1321 133.973 0.10639
5 1 29.3904 134.493 0.329326
6 1 29.1329 135.148 -0.280939
7 1 29.1407 136.074 -0.430978
8 1 30.0851 136.141 -0.363722
9 1 30.8274 135.618 -0.579583
10 1 31.226 134.766 -0.538812
11 1 31.3711 133.838 -0.347442
12 1 30.9691 133.385 0.345937
13 1 30.262 132.818 0.60707
14 1 29.3807 133.087 0.514637
15 1 28.9534 133.56 -0.202142
16 1 29.4362 134.181 -0.71747
17 1 30.1154 134.824 -0.642486
18 1 30.2163 135.244 0.191998
19 1 29.5754 135.669 0.72274
20 1 28.6974 135.381 0.704566
21 1 28.3012 134.551 0.657427
22 1 28.2707 133.598 0.671172
23 1 28.1752 132.828 0.148515
ITEM: TIMESTEP
11000
ITEM: NUMBER OF ATOMS
23
ITEM: BOX BOUNDS ff ff ff
1.7969849000000000e+01 4.1484205000000003e+01
1.2223822600000000e+02 1.4610820100000001e+02
-1.0000000000000000e+01 1.0000000000000000e+01
ITEM: ATOMS id type x y z
1 1 28.918 132.52 -0.286222
2 1 29.7179 132.789 -0.658693
3 1 30.2251 133.559 -0.509566
4 1 30.0523 134.056 0.256135
5 1 29.2519 134.541 0.34977
6 1 28.8768 135.176 -0.217708
7 1 29.1702 136.031 -0.475392
8 1 30.0917 136.079 -0.542179
9 1 30.9594 135.73 -0.636335
10 1 31.0844 134.854 -0.425481
11 1 31.3411 133.965 -0.262119
12 1 30.9618 133.224 0.219529
13 1 30.163 133.115 0.701055
14 1 29.2484 133.302 0.577308
15 1 28.831 133.571 -0.218588
16 1 29.3303 134.22 -0.68701
17 1 29.9695 134.901 -0.596006
18 1 30.195 135.149 0.256736
19 1 29.4283 135.595 0.602484
20 1 28.5276 135.319 0.748303
21 1 28.099 134.482 0.598485
22 1 28.1358 133.569 0.67664
23 1 28.18 132.74 0.234477
ITEM: TIMESTEP
11200
ITEM: NUMBER OF ATOMS
23
ITEM: BOX BOUNDS ff ff ff
1.7969849000000000e+01 4.1484205000000003e+01
1.2223822600000000e+02 1.4610820100000001e+02
-1.0000000000000000e+01 1.0000000000000000e+01
ITEM: ATOMS id type x y z
1 1 28.8444 132.272 -0.172983
2 1 29.6662 132.705 -0.333516
3 1 30.075 133.512 -0.579636
4 1 29.964 134.088 0.166673
5 1 29.1902 134.574 0.313791
6 1 28.7008 135.118 -0.30402
7 1 29.3236 135.755 -0.554215
8 1 30.1639 136.175 -0.637433
9 1 30.9874 135.765 -0.721772
10 1 31.115 134.974 -0.224365
11 1 31.0611 134.085 0.0263898
12 1 30.9923 133.169 0.177033
13 1 30.2031 133.005 0.688903
14 1 29.318 133.295 0.486325
15 1 28.8288 133.614 -0.243128
16 1 29.3236 134.211 -0.726725
17 1 29.9014 134.927 -0.567114
18 1 30.1244 135.46 0.181022
19 1 29.343 135.632 0.637468
20 1 28.4752 135.302 0.742782
21 1 28.0772 134.468 0.724518
22 1 27.9983 133.545 0.595809
23 1 28.0643 132.693 0.161361
ITEM: TIMESTEP
11400
ITEM: NUMBER OF ATOMS
23
ITEM: BOX BOUNDS ff ff ff
1.7969849000000000e+01 4.1484205000000003e+01
1.2223822600000000e+02 1.4610820100000001e+02
-1.0000000000000000e+01 1.0000000000000000e+01
ITEM: ATOMS id type x y z
1 1 28.6837 132.147 -0.0611701
2 1 29.4933 132.32 -0.480992
3 1 29.8908 133.179 -0.421142
4 1 29.7878 133.927 0.162351
5 1 29.2356 134.692 0.292305
6 1 28.7113 135.224 -0.298937
7 1 29.2279 135.874 -0.74476
8 1 30.0624 136.283 -0.680517
9 1 30.8634 135.78 -0.708565
10 1 31.0876 135.108 -0.085314
11 1 30.9957 134.226 0.239032
12 1 30.8867 133.328 0.177085
13 1 30.1109 133.018 0.591143
14 1 29.1867 133.027 0.49322
15 1 28.856 133.519 -0.241014
16 1 29.1542 134.255 -0.740267
17 1 29.9103 134.809 -0.573924
18 1 29.9948 135.469 0.102722
19 1 29.2382 135.745 0.592859
20 1 28.3933 135.334 0.732824
21 1 28.3249 134.393 0.681216
22 1 27.8119 133.616 0.593968
23 1 28.0621 132.841 0.1273
ITEM: TIMESTEP
11600
ITEM: NUMBER OF ATOMS
23
ITEM: BOX BOUNDS ff ff ff
1.7969849000000000e+01 4.1484205000000003e+01
1.2223822600000000e+02 1.4610820100000001e+02
-1.0000000000000000e+01 1.0000000000000000e+01
ITEM: ATOMS id type x y z
1 1 28.5773 132.223 -0.247326
2 1 29.4697 132.296 -0.538287
3 1 29.8864 133.128 -0.503278
4 1 29.7293 133.876 0.0241302
5 1 29.1531 134.567 0.257979
6 1 28.8599 135.184 -0.375258
7 1 29.1599 136.041 -0.606043
8 1 30.0231 136.404 -0.639639
9 1 30.6819 135.751 -0.691912
10 1 31.0664 135.219 -0.0167936
11 1 31.0401 134.404 0.41783
12 1 30.6962 133.538 0.352395
13 1 30.0259 133.019 0.737276
14 1 29.1591 133.024 0.336759
15 1 28.7469 133.492 -0.354007
16 1 29.1863 134.232 -0.748259
17 1 29.8231 134.891 -0.634959
18 1 29.9088 135.539 0.0137418
19 1 29.152 135.814 0.487047
20 1 28.3865 135.279 0.579772
21 1 28.0907 134.385 0.710053
22 1 27.565 133.619 0.528878
23 1 27.9885 132.814 0.215975
ITEM: TIMESTEP
11800
ITEM: NUMBER OF ATOMS
23
ITEM: BOX BOUNDS ff ff ff
1.7969849000000000e+01 4.1484205000000003e+01
1.2223822600000000e+02 1.4610820100000001e+02
-1.0000000000000000e+01 1.0000000000000000e+01
ITEM: ATOMS id type x y z
1 1 28.4109 132.365 -0.468983
2 1 29.3259 132.555 -0.632889
3 1 29.9424 133.188 -0.309545
4 1 29.7159 133.975 0.173957
5 1 29.0433 134.627 0.276308
6 1 28.762 135.306 -0.292384
7 1 29.0526 136.19 -0.460553
8 1 29.9852 136.363 -0.523686
9 1 30.7213 135.792 -0.667027
10 1 31.1376 135.265 0.00272908
11 1 30.9367 134.575 0.589773
12 1 30.7198 133.67 0.617567
13 1 30.0381 133.035 0.73803
14 1 29.1682 132.995 0.412797
15 1 28.8354 133.393 -0.35284
16 1 29.1739 134.195 -0.726369
17 1 29.845 134.893 -0.623707
18 1 29.8204 135.512 0.0765089
19 1 29.0903 135.743 0.650853
20 1 28.2345 135.344 0.749585
21 1 27.9052 134.49 0.470453
22 1 27.5689 133.611 0.327367
23 1 27.8428 132.718 0.1911
ITEM: TIMESTEP
12000
ITEM: NUMBER OF ATOMS
23
ITEM: BOX BOUNDS ff ff ff
1.7969849000000000e+01 4.1484205000000003e+01
1.2223822600000000e+02 1.4610820100000001e+02
-1.0000000000000000e+01 1.0000000000000000e+01
ITEM: ATOMS id type x y z
1 1 28.4154 132.573 -0.562112
2 1 29.348 132.658 -0.727556
3 1 29.8338 133.453 -0.53425
4 1 29.6474 134.046 0.182386
5 1 28.9366 134.67 0.279197
6 1 28.7891 135.297 -0.393216
7 1 28.9392 136.237 -0.439485
8 1 29.8619 136.327 -0.512471
9 1 30.6856 135.982 -0.233857
10 1 31.1459 135.275 0.156285
11 1 30.8124 134.572 0.688706
12 1 30.7402 133.699 0.375373
13 1 29.9926 133.195 0.671395
14 1 29.0828 133.079 0.50183
15 1 28.6335 133.688 -0.0447964
16 1 28.9977 134.187 -0.733402
17 1 29.6883 134.785 -0.549113
18 1 29.8281 135.359 0.197814
19 1 29.0785 135.643 0.666968
20 1 28.1716 135.352 0.708874
21 1 27.7863 134.602 0.2733
22 1 27.5915 133.667 0.211277
23 1 27.8446 132.769 0.146023
ITEM: TIMESTEP
12200
ITEM: NUMBER OF ATOMS
23
ITEM: BOX BOUNDS ff ff ff
1.7969849000000000e+01 4.1484205000000003e+01
1.2223822600000000e+02 1.4610820100000001e+02
-1.0000000000000000e+01 1.0000000000000000e+01
ITEM: ATOMS id type x y z
1 1 28.492 132.791 -0.591683
2 1 29.4257 132.819 -0.685437
3 1 29.8317 133.628 -0.480299
4 1 29.7158 134.279 0.193221
5 1 28.8646 134.676 0.254337
6 1 28.4881 135.234 -0.393367
7 1 28.9067 136.054 -0.268421
8 1 29.8423 136.226 -0.327681
9 1 30.6729 136.013 0.0376307
10 1 31.1661 135.351 0.519437
11 1 30.6809 134.551 0.463552
12 1 30.8609 133.636 0.623697
13 1 30.1006 133.108 0.691365
14 1 29.166 133.168 0.640483
15 1 28.7665 133.662 -0.0762775
16 1 28.9145 134.303 -0.746219
17 1 29.5387 135.008 -0.641793
18 1 29.7596 135.329 0.21613
19 1 29.0324 135.619 0.740462
20 1 28.1097 135.499 0.659156
21 1 27.7172 134.759 0.212603
22 1 27.3978 133.86 0.177683
23 1 27.8985 133.046 0.110038
ITEM: TIMESTEP
12400
ITEM: NUMBER OF ATOMS
23
ITEM: BOX BOUNDS ff ff ff
1.7969849000000000e+01 4.1484205000000003e+01
1.2223822600000000e+02 1.4610820100000001e+02
-1.0000000000000000e+01 1.0000000000000000e+01
ITEM: ATOMS id type x y z
1 1 28.5324 132.654 -0.523226
2 1 29.4279 132.883 -0.710888
3 1 29.9391 133.636 -0.481544
4 1 29.699 134.26 0.183737
5 1 28.8535 134.629 0.338038
6 1 28.5205 135.265 -0.272712
7 1 28.935 136.083 -0.46985
8 1 29.7806 136.441 -0.341311
9 1 30.4932 136.171 0.229686
10 1 30.9828 135.473 0.617592
11 1 30.9779 134.555 0.402908
12 1 30.9713 133.616 0.439888
13 1 30.2151 133.074 0.566387
14 1 29.3324 133.349 0.717909
15 1 28.8106 133.577 -0.0513785
16 1 28.9328 134.238 -0.719038
17 1 29.5305 134.964 -0.65259
18 1 29.6121 135.449 0.162885
19 1 28.9003 135.733 0.702269
20 1 27.9742 135.677 0.620577
21 1 27.5169 134.85 0.53
22 1 27.4899 133.962 0.201181
23 1 27.7812 133.226 -0.331137
ITEM: TIMESTEP
12600
ITEM: NUMBER OF ATOMS
23
ITEM: BOX BOUNDS ff ff ff
1.7969849000000000e+01 4.1484205000000003e+01
1.2223822600000000e+02 1.4610820100000001e+02
-1.0000000000000000e+01 1.0000000000000000e+01
ITEM: ATOMS id type x y z
1 1 28.4607 132.811 -0.532409
2 1 29.3887 132.925 -0.637885
3 1 29.8802 133.657 -0.334816
4 1 29.6305 134.334 0.279542
5 1 28.8004 134.8 0.302502
6 1 28.466 135.307 -0.416706
7 1 28.9167 136.111 -0.520392
8 1 29.7435 136.489 -0.311165
9 1 30.3041 136.216 0.39583
10 1 30.7882 135.394 0.375264
11 1 31.0854 134.523 0.517531
12 1 30.8464 133.767 0.0275989
13 1 30.3414 133.05 0.381971
14 1 29.442 133.185 0.608398
15 1 28.7812 133.653 0.1475
16 1 28.9617 134.237 -0.574648
17 1 29.6185 134.883 -0.670678
18 1 29.6263 135.495 0.0687913
19 1 28.8706 135.81 0.522744
20 1 28.0071 135.454 0.708436
21 1 27.4253 134.706 0.731503
22 1 27.7077 134.059 0.0905646
23 1 27.7644 133.435 -0.613246
ITEM: TIMESTEP
12800
ITEM: NUMBER OF ATOMS
23
ITEM: BOX BOUNDS ff ff ff
1.7969849000000000e+01 4.1484205000000003e+01
1.2223822600000000e+02 1.4610820100000001e+02
-1.0000000000000000e+01 1.0000000000000000e+01
ITEM: ATOMS id type x y z
1 1 28.3443 132.88 -0.504778
2 1 29.2352 133.051 -0.690481
3 1 29.8396 133.712 -0.376197
4 1 29.6625 134.238 0.381534
5 1 28.8519 134.714 0.365348
6 1 28.5988 135.295 -0.335999
7 1 29.0529 136.033 -0.71524
8 1 29.7292 136.51 -0.250212
9 1 30.3464 136.287 0.415679
10 1 30.6476 135.434 0.187282
11 1 31.0137 134.658 0.567167
12 1 30.9405 133.803 0.192555
13 1 30.3823 133.193 0.652169
14 1 29.4701 133.089 0.477729
15 1 28.7623 133.631 0.172861
16 1 28.7471 134.099 -0.661417
17 1 29.4435 134.718 -0.580464
18 1 29.5752 135.395 0.0553574
19 1 28.9295 135.843 0.56755
20 1 28.1039 135.457 0.661303
21 1 27.4977 134.761 0.478105
22 1 27.8592 134.054 -0.0202826
23 1 27.6754 133.489 -0.745435
ITEM: TIMESTEP
13000
ITEM: NUMBER OF ATOMS
23
ITEM: BOX BOUNDS ff ff ff
1.7969849000000000e+01 4.1484205000000003e+01
1.2223822600000000e+02 1.4610820100000001e+02
-1.0000000000000000e+01 1.0000000000000000e+01
ITEM: ATOMS id type x y z
1 1 28.3408 132.853 -0.531072
2 1 29.2654 132.968 -0.599043
3 1 29.8496 133.597 -0.249006
4 1 29.6816 134.222 0.443191
5 1 28.8772 134.72 0.427967
6 1 28.5358 135.239 -0.270069
7 1 28.8821 136.006 -0.734438
8 1 29.585 136.438 -0.313569
9 1 30.2892 136.298 0.289096
10 1 30.9084 135.643 -0.0137907
11 1 30.9226 134.8 0.443557
12 1 30.9178 133.866 0.27848
13 1 30.3999 133.137 0.612838
14 1 29.4566 132.976 0.605323
15 1 28.8185 133.532 0.208014
16 1 28.6771 134.06 -0.543063
17 1 29.4364 134.629 -0.560807
18 1 29.6836 135.352 -0.0308927
19 1 29.1357 135.762 0.604077
20 1 28.2119 135.611 0.748382
21 1 27.6215 134.982 0.39576
22 1 27.5274 134.266 -0.214712
23 1 27.6505 133.468 -0.673797
ITEM: TIMESTEP
13200
ITEM: NUMBER OF ATOMS
23
ITEM: BOX BOUNDS ff ff ff
1.7969849000000000e+01 4.1484205000000003e+01
1.2223822600000000e+02 1.4610820100000001e+02
-1.0000000000000000e+01 1.0000000000000000e+01
ITEM: ATOMS id type x y z
1 1 28.4483 133.074 -0.653331
2 1 29.3539 132.817 -0.465847
3 1 29.805 133.636 -0.423704
4 1 29.6266 134.224 0.305371
5 1 28.8484 134.722 0.47908
6 1 28.6051 135.226 -0.276301
7 1 28.7151 136.025 -0.728761
8 1 29.5752 136.377 -0.576583
9 1 30.2425 136.297 0.0682385
10 1 30.9906 135.773 -0.0274807
11 1 30.6699 134.925 0.194336
12 1 30.6847 134.007 0.492853
13 1 30.4953 133.105 0.698828
14 1 29.5502 133.045 0.732551
15 1 28.8367 133.473 0.257471
16 1 28.688 134.094 -0.450158
17 1 29.3864 134.649 -0.726408
18 1 29.6738 135.255 -0.0714543
19 1 29.2859 135.822 0.566272
20 1 28.3811 135.621 0.70034
21 1 27.7648 135.017 0.31392
22 1 27.3183 134.423 -0.261473
23 1 27.6892 133.624 -0.586404
ITEM: TIMESTEP
13400
ITEM: NUMBER OF ATOMS
23
ITEM: BOX BOUNDS ff ff ff
1.7969849000000000e+01 4.1484205000000003e+01
1.2223822600000000e+02 1.4610820100000001e+02
-1.0000000000000000e+01 1.0000000000000000e+01
ITEM: ATOMS id type x y z
1 1 28.4922 133.02 -0.629724
2 1 29.356 132.862 -0.350137
3 1 29.8702 133.633 -0.42853
4 1 29.6641 134.247 0.241055
5 1 28.8971 134.749 0.442964
6 1 28.6448 135.227 -0.319901
7 1 28.579 136.135 -0.462706
8 1 29.4786 136.35 -0.543318
9 1 30.2933 136.329 -0.0937782
10 1 30.9837 135.656 -0.133134
11 1 30.8404 134.738 0.0769074
12 1 30.7552 134.079 0.732023
13 1 30.4162 133.219 0.586627
14 1 29.4834 133.241 0.646524
15 1 28.6777 133.59 0.31515
16 1 28.7545 134.094 -0.47751
17 1 29.4631 134.625 -0.742243
18 1 29.7071 135.392 -0.224673
19 1 29.1515 135.8 0.436662
20 1 28.2314 135.881 0.467627
21 1 27.645 135.136 0.408151
22 1 27.6153 134.377 -0.154973
23 1 27.7301 133.555 -0.586382
ITEM: TIMESTEP
13600
ITEM: NUMBER OF ATOMS
23
ITEM: BOX BOUNDS ff ff ff
1.7969849000000000e+01 4.1484205000000003e+01
1.2223822600000000e+02 1.4610820100000001e+02
-1.0000000000000000e+01 1.0000000000000000e+01
ITEM: ATOMS id type x y z
1 1 28.4592 133.01 -0.606191
2 1 29.3977 132.81 -0.537337
3 1 29.813 133.666 -0.49018
4 1 29.8077 134.293 0.222408
5 1 28.9675 134.719 0.36145
6 1 28.5079 135.283 -0.225924
7 1 28.6046 136.169 -0.576862
8 1 29.3876 136.661 -0.365767
9 1 30.2852 136.395 -0.180562
10 1 30.862 135.656 -0.284143
11 1 30.8301 134.743 -0.0799055
12 1 30.8636 134.17 0.680931
13 1 30.3489 133.386 0.551131
14 1 29.4309 133.317 0.618719
15 1 28.6844 133.7 0.178301
16 1 28.7147 134.219 -0.616068
17 1 29.4103 134.865 -0.701965
18 1 29.6195 135.545 -0.085939
19 1 29.0054 135.977 0.482736
20 1 28.1262 135.789 0.724918
21 1 27.5111 135.208 0.345062
22 1 27.6926 134.339 0.0326187
23 1 27.719 133.592 -0.529068
ITEM: TIMESTEP
13800
ITEM: NUMBER OF ATOMS
23
ITEM: BOX BOUNDS ff ff ff
1.7969849000000000e+01 4.1484205000000003e+01
1.2223822600000000e+02 1.4610820100000001e+02
-1.0000000000000000e+01 1.0000000000000000e+01
ITEM: ATOMS id type x y z
1 1 28.4798 133.01 -0.62829
2 1 29.4269 132.901 -0.596766
3 1 29.8573 133.732 -0.585585
4 1 29.8277 134.409 0.0469703
5 1 29.0524 134.872 0.261437
6 1 28.475 135.363 -0.305318
7 1 28.799 136.174 -0.62944
8 1 29.4017 136.813 -0.285076
9 1 30.3121 136.571 -0.15085
10 1 30.669 135.727 -0.369038
11 1 30.8859 134.835 -0.12153
12 1 30.8717 134.138 0.512548
13 1 30.4395 133.317 0.700866
14 1 29.5163 133.395 0.55929
15 1 28.801 133.764 0.0949668
16 1 28.8542 134.309 -0.673575
17 1 29.4168 135.061 -0.738994
18 1 29.6691 135.669 -0.0768482
19 1 28.9861 135.958 0.524759
20 1 28.0984 135.67 0.732755
21 1 27.3688 135.141 0.50599
22 1 27.5571 134.28 0.150383
23 1 27.7918 133.646 -0.505489
ITEM: TIMESTEP
14000
ITEM: NUMBER OF ATOMS
23
ITEM: BOX BOUNDS ff ff ff
1.7969849000000000e+01 4.1484205000000003e+01
1.2223822600000000e+02 1.4610820100000001e+02
-1.0000000000000000e+01 1.0000000000000000e+01
ITEM: ATOMS id type x y z
1 1 28.4409 133.045 -0.630082
2 1 29.385 133.108 -0.591393
3 1 30.0436 133.784 -0.48836
4 1 29.7837 134.519 0.0325535
5 1 28.9964 134.82 0.424053
6 1 28.4994 135.34 -0.201582
7 1 28.7128 136.209 -0.451814
8 1 29.4046 136.795 -0.246644
9 1 30.3236 136.584 -0.267315
10 1 30.805 135.833 -0.527478
11 1 30.8291 135.07 0.0328481
12 1 30.784 134.127 0.185809
13 1 30.4482 133.411 0.694772
14 1 29.5143 133.421 0.558101
15 1 28.8593 133.865 0.0333776
16 1 28.9477 134.428 -0.70958
17 1 29.4265 135.236 -0.683196
18 1 29.7267 135.695 0.0639726
19 1 28.9788 135.943 0.594877
20 1 28.0477 135.813 0.657761
21 1 27.3749 135.132 0.686449
22 1 27.5174 134.407 0.112142
23 1 27.8258 133.755 -0.488304
ITEM: TIMESTEP
14200
ITEM: NUMBER OF ATOMS
23
ITEM: BOX BOUNDS ff ff ff
1.7969849000000000e+01 4.1484205000000003e+01
1.2223822600000000e+02 1.4610820100000001e+02
-1.0000000000000000e+01 1.0000000000000000e+01
ITEM: ATOMS id type x y z
1 1 28.4392 133.12 -0.721783
2 1 29.3497 133.302 -0.69383
3 1 29.966 133.958 -0.425855
4 1 29.8073 134.589 0.241907
5 1 28.9789 134.842 0.5882
6 1 28.4737 135.293 -0.0626714
7 1 28.6314 136.194 -0.232524
8 1 29.3949 136.697 -0.472476
9 1 30.3317 136.563 -0.562772
10 1 30.8469 135.792 -0.437259
11 1 30.8982 135.029 0.0925592
12 1 31.1605 134.148 0.305007
13 1 30.3771 133.668 0.501893
14 1 29.4687 133.395 0.569599
15 1 28.8109 133.814 0.0384187
16 1 29.0718 134.423 -0.653154
17 1 29.4474 135.288 -0.617058
18 1 29.734 135.672 0.205962
19 1 29.0509 135.935 0.74516
20 1 28.0902 135.95 0.744416
21 1 27.6222 135.126 0.69293
22 1 27.4694 134.435 0.0730768
23 1 27.7675 133.723 -0.482568
ITEM: TIMESTEP
14400
ITEM: NUMBER OF ATOMS
23
ITEM: BOX BOUNDS ff ff ff
1.7969849000000000e+01 4.1484205000000003e+01
1.2223822600000000e+02 1.4610820100000001e+02
-1.0000000000000000e+01 1.0000000000000000e+01
ITEM: ATOMS id type x y z
1 1 28.5581 133.364 -0.712654
2 1 29.4914 133.387 -0.685794
3 1 29.97 134.195 -0.53043
4 1 29.7549 134.541 0.315856
5 1 28.9832 135.035 0.559309
6 1 28.4234 135.384 -0.121905
7 1 28.6732 136.176 -0.543891
8 1 29.4074 136.735 -0.647303
9 1 30.3236 136.457 -0.746762
10 1 30.7963 135.818 -0.257233
11 1 30.8439 134.921 0.0189177
12 1 31.1506 134.094 0.338619
13 1 30.5025 133.519 0.677545
14 1 29.5518 133.499 0.696303
15 1 28.8325 133.953 0.279485
16 1 28.8709 134.469 -0.486485
17 1 29.4119 135.23 -0.563207
18 1 29.7432 135.621 0.212602
19 1 29.0719 136.063 0.714514
20 1 28.1496 135.966 0.721959
21 1 27.7538 135.121 0.69846
22 1 27.6237 134.427 0.086405
23 1 27.7137 133.63 -0.389214
ITEM: TIMESTEP
14600
ITEM: NUMBER OF ATOMS
23
ITEM: BOX BOUNDS ff ff ff
1.7969849000000000e+01 4.1484205000000003e+01
1.2223822600000000e+02 1.4610820100000001e+02
-1.0000000000000000e+01 1.0000000000000000e+01
ITEM: ATOMS id type x y z
1 1 28.5664 133.314 -0.733234
2 1 29.5209 133.437 -0.738433
3 1 30.0481 134.103 -0.343714
4 1 29.6676 134.589 0.353232
5 1 28.8002 134.957 0.498693
6 1 28.5109 135.406 -0.264555
7 1 28.6037 136.237 -0.666346
8 1 29.4489 136.649 -0.705032
9 1 30.3192 136.29 -0.708367
10 1 30.9061 135.766 -0.18996
11 1 30.7676 134.876 -0.0318033
12 1 31.111 134.14 0.4592
13 1 30.4992 133.48 0.673297
14 1 29.5745 133.47 0.555668
15 1 28.7434 133.822 0.271582
16 1 28.8914 134.376 -0.457414
17 1 29.4539 135.116 -0.601792
18 1 29.5852 135.865 -0.0467228
19 1 29.0563 136.436 0.487188
20 1 28.1558 136.174 0.62028
21 1 27.762 135.341 0.527562
22 1 27.7833 134.475 0.147144
23 1 27.8139 133.717 -0.362844
ITEM: TIMESTEP
14800
ITEM: NUMBER OF ATOMS
23
ITEM: BOX BOUNDS ff ff ff
1.7969849000000000e+01 4.1484205000000003e+01
1.2223822600000000e+02 1.4610820100000001e+02
-1.0000000000000000e+01 1.0000000000000000e+01
ITEM: ATOMS id type x y z
1 1 28.5278 133.239 -0.647688
2 1 29.4623 133.304 -0.597946
3 1 29.9215 134.073 -0.303259
4 1 29.7165 134.569 0.455373
5 1 28.8559 134.984 0.363528
6 1 28.4416 135.523 -0.267255
7 1 28.628 136.38 -0.583378
8 1 29.4525 136.844 -0.56637
9 1 30.2721 136.376 -0.668016
10 1 30.8583 135.745 -0.305281
11 1 31.0232 134.902 0.0285088
12 1 31.0431 134.127 0.560799
13 1 30.4224 133.408 0.589616
14 1 29.5158 133.192 0.563961
15 1 28.9542 133.853 0.187637
16 1 28.9068 134.362 -0.62561
17 1 29.5909 134.994 -0.614419
18 1 29.5421 135.696 0.0164243
19 1 29.1312 136.425 0.444596
20 1 28.218 136.221 0.524397
21 1 27.648 135.462 0.497109
22 1 27.8735 134.634 0.130184
23 1 27.9249 133.912 -0.45928
ITEM: TIMESTEP
15000
ITEM: NUMBER OF ATOMS
23
ITEM: BOX BOUNDS ff ff ff
1.7969849000000000e+01 4.1484205000000003e+01
1.2223822600000000e+02 1.4610820100000001e+02
-1.0000000000000000e+01 1.0000000000000000e+01
ITEM: ATOMS id type x y z
1 1 28.533 133.193 -0.541243
2 1 29.468 133.282 -0.68519
3 1 29.9825 133.887 -0.180088
4 1 29.8206 134.683 0.288545
5 1 28.9574 135.033 0.382393
6 1 28.6514 135.508 -0.377827
7 1 28.7179 136.427 -0.575365
8 1 29.4681 137.001 -0.540051
9 1 30.3265 136.63 -0.574022
10 1 30.6801 135.804 -0.31557
11 1 31.0082 135.017 0.0961614
12 1 30.7731 134.193 0.480095
13 1 30.3236 133.416 0.749442
14 1 29.4724 133.169 0.41789
15 1 28.8791 133.866 0.254185
16 1 29.0812 134.3 -0.572918
17 1 29.6008 135.085 -0.651669
18 1 29.5927 135.749 0.0281764
19 1 29.1817 136.321 0.658034
20 1 28.2906 136.054 0.638962
21 1 27.5268 135.516 0.449372
22 1 27.7469 134.696 0.0340539
23 1 27.9251 133.857 -0.332822
ITEM: TIMESTEP
15200
ITEM: NUMBER OF ATOMS
23
ITEM: BOX BOUNDS ff ff ff
1.7969849000000000e+01 4.1484205000000003e+01
1.2223822600000000e+02 1.4610820100000001e+02
-1.0000000000000000e+01 1.0000000000000000e+01
ITEM: ATOMS id type x y z
1 1 28.6351 133.281 -0.597296
2 1 29.5869 133.243 -0.603366
3 1 30.0116 134.052 -0.379632
4 1 29.7587 134.68 0.262314
5 1 28.9171 135.054 0.508011
6 1 28.5515 135.549 -0.216669
7 1 28.8009 136.427 -0.522077
8 1 29.5874 136.936 -0.344561
9 1 30.5127 136.819 -0.348439
10 1 30.7638 135.906 -0.326067
11 1 30.7666 135.038 0.0400557
12 1 30.8916 134.228 0.482817
13 1 30.1832 133.623 0.635889
14 1 29.3878 133.131 0.459303
15 1 28.9534 133.92 0.201218
16 1 28.9528 134.523 -0.519436
17 1 29.513 135.23 -0.73489
18 1 29.7079 135.745 0.0110456
19 1 29.2063 136.159 0.714658
20 1 28.2979 135.931 0.729111
21 1 27.544 135.604 0.296655
22 1 27.6392 134.672 0.0667575
23 1 27.9714 133.885 -0.295925
ITEM: TIMESTEP
15400
ITEM: NUMBER OF ATOMS
23
ITEM: BOX BOUNDS ff ff ff
1.7969849000000000e+01 4.1484205000000003e+01
1.2223822600000000e+02 1.4610820100000001e+02
-1.0000000000000000e+01 1.0000000000000000e+01
ITEM: ATOMS id type x y z
1 1 28.5902 133.313 -0.749035
2 1 29.5243 133.452 -0.615452
3 1 30.0042 134.21 -0.428349
4 1 29.8454 134.699 0.348971
5 1 28.9872 135.11 0.449997
6 1 28.5898 135.613 -0.224351
7 1 28.9255 136.442 -0.453505
8 1 29.6699 136.956 -0.167015
9 1 30.567 136.769 -0.178439
10 1 30.8785 135.923 -0.393916
11 1 30.893 135.136 0.110034
12 1 30.9732 134.25 0.449067
13 1 30.2281 133.695 0.64176
14 1 29.4251 133.246 0.616954
15 1 29.0027 133.938 0.154404
16 1 28.9743 134.587 -0.562438
17 1 29.6603 135.264 -0.601548
18 1 29.7307 135.892 0.0651724
19 1 29.0128 136.245 0.573738
20 1 28.057 136.228 0.529169
21 1 27.6175 135.458 0.18153
22 1 27.8687 134.556 0.255055
23 1 27.9523 133.738 -0.224035
ITEM: TIMESTEP
15600
ITEM: NUMBER OF ATOMS
23
ITEM: BOX BOUNDS ff ff ff
1.7969849000000000e+01 4.1484205000000003e+01
1.2223822600000000e+02 1.4610820100000001e+02
-1.0000000000000000e+01 1.0000000000000000e+01
ITEM: ATOMS id type x y z
1 1 28.555 133.506 -0.627673
2 1 29.4932 133.503 -0.597843
3 1 30.1076 134.082 -0.161082
4 1 29.804 134.775 0.404576
5 1 28.9484 135.183 0.554436
6 1 28.7218 135.609 -0.248942
7 1 29.0175 136.393 -0.700104
8 1 29.5629 137.01 -0.284226
9 1 30.4855 136.8 -0.180297
10 1 30.9877 136.018 -0.25838
11 1 31.132 135.201 0.205447
12 1 30.9889 134.293 0.353502
13 1 30.5272 133.577 0.688359
14 1 29.586 133.624 0.597022
15 1 28.9104 134.12 0.178875
16 1 29.1978 134.662 -0.520874
17 1 29.777 135.41 -0.560841
18 1 29.6506 136.035 0.143799
19 1 28.8572 136.296 0.579034
20 1 27.9792 136.263 0.256993
21 1 27.5856 135.44 0.30844
22 1 27.9162 134.557 0.383738
23 1 27.7997 133.796 -0.159026
ITEM: TIMESTEP
15800
ITEM: NUMBER OF ATOMS
23
ITEM: BOX BOUNDS ff ff ff
1.7969849000000000e+01 4.1484205000000003e+01
1.2223822600000000e+02 1.4610820100000001e+02
-1.0000000000000000e+01 1.0000000000000000e+01
ITEM: ATOMS id type x y z
1 1 28.5051 133.687 -0.578924
2 1 29.4602 133.551 -0.491373
3 1 30.0405 134.228 -0.199293
4 1 29.9528 134.87 0.46842
5 1 29.0948 135.185 0.67384
6 1 28.7676 135.617 -0.101481
7 1 28.9939 136.296 -0.677232
8 1 29.5556 137.07 -0.574592
9 1 30.4198 136.77 -0.341324
10 1 30.9178 136.144 0.138652
11 1 31.2361 135.286 0.0987192
12 1 31.1297 134.431 0.472176
13 1 30.5786 133.672 0.545615
14 1 29.6785 133.804 0.73408
15 1 29.0418 134.233 0.173231
16 1 29.1779 134.711 -0.622728
17 1 29.7787 135.44 -0.477165
18 1 29.629 136.09 0.168894
19 1 28.8754 136.385 0.622956
20 1 28.0312 136.333 0.199034
21 1 27.8158 135.455 0.476399
22 1 27.9657 134.522 0.607806
23 1 27.7484 133.956 -0.111912
ITEM: TIMESTEP
16000
ITEM: NUMBER OF ATOMS
23
ITEM: BOX BOUNDS ff ff ff
1.7969849000000000e+01 4.1484205000000003e+01
1.2223822600000000e+02 1.4610820100000001e+02
-1.0000000000000000e+01 1.0000000000000000e+01
ITEM: ATOMS id type x y z
1 1 28.5824 133.591 -0.526718
2 1 29.51 133.691 -0.680588
3 1 30.0975 134.276 -0.219457
4 1 29.9634 134.797 0.538883
5 1 29.1989 135.329 0.711676
6 1 28.6602 135.622 0.0307831
7 1 28.8895 136.24 -0.61395
8 1 29.6341 136.793 -0.62647
9 1 30.5396 136.523 -0.426651
10 1 30.8044 136.251 0.41404
11 1 31.2119 135.462 0.150804
12 1 31.0399 134.546 0.318036
13 1 30.5562 133.887 0.721365
14 1 29.6458 133.705 0.641366
15 1 28.9993 134.293 0.282564
16 1 29.116 134.765 -0.527779
17 1 29.7755 135.411 -0.324729
18 1 29.7287 136.192 0.188214
19 1 28.9994 136.433 0.703699
20 1 28.0782 136.452 0.491088
21 1 27.816 135.569 0.666163
22 1 27.9508 134.658 0.585391
23 1 27.878 134.114 -0.155376
ITEM: TIMESTEP
16200
ITEM: NUMBER OF ATOMS
23
ITEM: BOX BOUNDS ff ff ff
1.7969849000000000e+01 4.1484205000000003e+01
1.2223822600000000e+02 1.4610820100000001e+02
-1.0000000000000000e+01 1.0000000000000000e+01
ITEM: ATOMS id type x y z
1 1 28.5702 133.533 -0.673075
2 1 29.4817 133.821 -0.600662
3 1 30.1284 134.351 -0.195086
4 1 29.8131 134.799 0.553919
5 1 28.9851 135.206 0.685813
6 1 28.6678 135.764 -0.0072576
7 1 28.8741 136.319 -0.723927
8 1 29.7338 136.688 -0.728423
9 1 30.5708 136.574 -0.302
10 1 30.9422 136.489 0.572877
11 1 31.0015 135.576 0.305091
12 1 31.1016 134.66 0.384278
13 1 30.6616 133.892 0.638968
14 1 29.7498 133.683 0.638494
15 1 28.9994 134.191 0.378667
16 1 29.1391 134.814 -0.303811
17 1 29.8467 135.429 -0.35851
18 1 29.8078 136.038 0.388365
19 1 29.1347 136.683 0.55353
20 1 28.2277 136.458 0.64455
21 1 27.6119 135.758 0.447842
22 1 27.8807 134.856 0.36149
23 1 28.0339 134.207 -0.301258
ITEM: TIMESTEP
16400
ITEM: NUMBER OF ATOMS
23
ITEM: BOX BOUNDS ff ff ff
1.7969849000000000e+01 4.1484205000000003e+01
1.2223822600000000e+02 1.4610820100000001e+02
-1.0000000000000000e+01 1.0000000000000000e+01
ITEM: ATOMS id type x y z
1 1 28.6486 133.629 -0.730295
2 1 29.5802 133.746 -0.627278
3 1 30.1577 134.351 -0.228537
4 1 29.8946 134.884 0.510044
5 1 28.9983 135.182 0.539508
6 1 28.7154 135.797 -0.0981807
7 1 28.8972 136.473 -0.749536
8 1 29.8277 136.558 -0.615568