300
Atoms. Timestep: 51000
1 5.72741 2.01652 3.60135
1 6.63641 1.65064 3.72295
1 6.68642 1.59571 2.74018
1 6.53169 1.4261 1.78372
1 6.00191 1.82083 1.15208
1 5.60505 2.64358 0.861032
1 4.72837 2.31834 0.679245
1 4.40452 1.41582 0.87639
1 4.85844 0.737095 0.354684
1 5.82972 0.696984 0.2648
1 5.64725 0.607715 1.20183
1 5.635 0.226923 2.07205
1 5.48884 -0.606035 2.50777
1 4.68997 -0.986255 2.23073
1 4.47704 -1.2859 1.341
1 3.92857 -0.538754 1.47072
1 4.17132 -0.579398 0.504499
1 4.10592 -1.2497 -0.186624
1 3.85881 -1.03262 -1.08539
1 3.31937 -0.248623 -1.20645
1 4.17304 -0.0436687 -0.752929
1 3.37715 0.453998 -0.401227
1 2.87337 1.26659 -0.322229
1 3.09159 1.23767 -1.24917
1 4.00107 1.21518 -0.830123
1 4.3192 0.988551 -1.73637
1 4.54898 0.677844 -2.6244
1 5.44244 0.567593 -2.82795
1 5.15625 -0.226012 -2.46447
1 4.5009 -0.704218 -1.89493
1 5.4101 -1.06329 -1.68166
1 6.23713 -1.18301 -2.03195
1 7.21945 -1.41209 -2.22364
1 7.56847 -1.85708 -1.48667
1 8.00383 -1.05262 -1.37281
1 8.75859 -0.599641 -1.78488
1 9.70521 -0.766332 -1.53137
1 9.88651 0.0538583 -1.02653
1 10.6692 0.410091 -0.514853
1 10.7238 0.940558 0.314856
1 9.93675 0.405623 0.244719
1 9.92814 -0.0411182 1.07683
1 9.75977 0.912287 1.15685
1 9.72799 1.65509 1.80069
1 9.87526 2.60597 1.80227
1 8.88723 2.56027 2.06184
1 9.5095 2.35322 2.81787
1 9.13067 1.54454 3.25232
1 8.20514 1.40676 3.03816
1 8.03335 1.14591 3.92988
1 7.74091 0.307349 3.56875
1 8.15265 0.24349 4.46513
1 8.80264 0.896823 4.70768
1 8.62248 0.251587 5.45611
1 8.20522 1.10622 5.5707
1 7.38535 1.57425 5.62489
1 6.69829 1.84208 6.23675
1 5.88215 1.42696 6.50637
1 6.27611 0.646336 6.92156
1 6.27922 0.0128572 7.67571
1 6.40927 -0.810785 7.07618
1 6.04041 -1.64899 7.23716
1 5.81415 -2.53617 7.47362
1 4.90118 -2.44847 7.64792
1 4.24911 -2.59357 6.85335
1 3.77379 -2.77716 5.99428
1 4.04311 -3.36421 5.26666
1 4.91289 -3.87315 5.29387
1 4.57074 -4.65361 4.84758
1 4.01254 -5.43154 4.53504
1 3.81588 -6.24426 4.97336
1 2.89717 -6.45817 4.95235
1 1.99503 -6.41486 4.81579
1 1.59031 -7.21516 4.44341
1 0.960705 -7.77143 4.97842
1 0.526753 -7.52551 4.14786
1 -0.466845 -7.48441 4.2041
1 -0.212616 -7.12531 3.37718
1 -1.13502 -7.30821 3.15542
1 -1.34283 -7.67279 2.28521
1 -0.807597 -8.44571 2.48976
1 -1.26747 -9.28776 2.30821
1 -1.61067 -10.0806 2.7883
1 -1.31743 -10.8209 3.34628
1 -0.848911 -11.4316 3.8626
1 -1.03382 -12.2728 4.31423
1 -0.962237 -11.9382 5.14317
1 -0.271845 -12.3276 5.56544
1 -0.466869 -13.1497 5.9343
1 0.0319989 -13.1957 6.86901
1 0.809876 -12.6473 7.18918
1 1.241 -11.781 7.30592
1 0.847507 -11.1337 7.89906
1 1.02854 -10.3129 8.33321
1 0.203487 -9.96463 8.00993
1 -0.0578089 -9.2123 8.57007
1 -0.296507 -8.65352 7.74877
1 -1.24567 -8.26984 7.75908
1 -1.67193 -8.87924 7.09887
1 -1.46714 -9.12225 6.23571
1 -1.99459 -8.31481 6.11502
1 -2.4888 -8.14389 5.25504
1 -2.79988 -7.39717 4.73267
1 -2.88089 -6.51261 4.32085
1 -2.67842 -6.51172 3.43244
1 -3.41395 -7.0384 3.66357
1 -4.23195 -6.69274 3.25515
1 -4.85229 -6.1938 2.64706
1 -4.13721 -5.49941 2.73437
1 -4.61909 -4.75124 2.40666
1 -3.67754 -4.55507 2.7047
1 -2.94472 -4.4516 2.06785
1 -3.24405 -3.54312 2.10668
1 -2.36392 -3.38632 2.28404
1 -2.07793 -2.68766 2.83121
1 -3.12937 -2.66697 3.26443
1 -3.62615 -2.4768 4.08259
1 -4.07285 -1.62949 4.18911
1 -4.52221 -1.47144 5.06761
1 -5.28957 -1.98159 5.44038
1 -5.8954 -2.13233 4.71513
1 -6.44914 -2.08595 5.45965
1 -6.77101 -2.61182 4.72664
1 -7.44732 -3.15893 5.11
1 -7.13053 -3.80127 4.44305
1 -7.12302 -3.94013 3.42115
1 -7.14978 -3.60821 2.5214
1 -6.18627 -3.6067 2.59001
1 -5.73989 -3.52696 1.80688
1 -5.48468 -2.82615 1.26117
1 -4.56569 -2.70319 1.24459
1 -3.72471 -2.21718 1.09858
1 -3.28696 -1.29781 0.949385
1 -2.38953 -0.923688 1.15998
1 -1.80819 -1.23673 1.85743
1 -0.884629 -1.00082 1.63203
1 -0.386138 -0.989442 2.47192
1 -0.030169 -1.61724 3.16267
1 0.179201 -2.63929 3.23163
1 -0.501862 -3.23832 3.53208
1 -1.40967 -2.9869 3.74999
1 -2.09657 -3.69016 3.83783
1 -3.06224 -3.90595 3.64873
1 -3.99272 -3.79741 3.56176
1 -4.21985 -3.00898 3.04856
1 -4.73467 -2.16935 2.80568
1 -5.01715 -1.82338 1.90711
1 -5.39781 -1.34219 1.17936
1 -5.40702 -0.417171 1.26408
1 -4.77082 -0.166559 2.00991
1 -3.9454 -0.185888 2.55955
1 -3.45033 0.467704 2.0593
1 -3.14595 1.37617 1.57763
1 -3.96157 1.83777 1.751
1 -4.53771 1.84625 2.59408
1 -4.78439 2.661 2.98239
1 -5.13869 3.32314 2.41191
1 -5.27289 3.96734 1.7007
1 -5.46891 3.806 0.75728
1 -4.93907 3.98108 0.00668102
1 -4.69933 3.48148 -0.807897
1 -4.39779 3.85449 -1.66022
1 -5.11857 3.31622 -2.06971
1 -6.04421 3.10777 -2.26992
1 -5.59391 2.4128 -2.71508
1 -5.83258 1.93772 -3.4994
1 -6.24027 2.79422 -3.61449
1 -7.08738 2.50445 -3.88705
1 -7.83921 3.08425 -3.67435
1 -7.59651 3.23681 -2.77511
1 -8.1251 2.65156 -2.18002
1 -8.0032 3.2968 -1.46393
1 -8.32267 4.04851 -0.915538
1 -7.90961 4.80516 -0.493014
1 -7.21615 4.76812 -1.13595
1 -6.22788 4.7672 -1.19577
1 -5.76073 4.677 -2.04457
1 -5.43796 5.4337 -2.67448
1 -4.8954 5.97997 -3.25144
1 -4.06497 6.27273 -2.99676
1 -3.99367 7.19439 -3.12198
1 -4.91666 7.49363 -3.27919
1 -5.10531 7.19166 -4.13087
1 -5.71228 7.06044 -4.90533
1 -5.8285 6.28075 -4.30381
1 -6.26435 5.44462 -4.52026
1 -7.24746 5.60513 -4.27708
1 -7.81989 4.75403 -4.08162
1 -8.14211 4.91454 -3.15879
1 -8.50556 5.24272 -2.32839
1 -9.47653 5.24974 -2.09806
1 -9.93756 4.7715 -1.39073
1 -10.3049 3.88123 -1.59955
1 -10.9843 3.67942 -2.21414
1 -11.4086 3.87157 -1.33919
1 -11.3315 3.04958 -0.867903
1 -10.4387 2.82431 -0.629546
1 -10.8121 1.89567 -0.548331
1 -10.2442 1.52081 -1.19881
1 -10.2422 0.504529 -1.3387
1 -9.5338 0.187183 -0.698617
1 -8.91189 0.630212 -0.225449
1 -8.53725 1.3919 0.305402
1 -8.09228 2.20428 -0.0107069
1 -7.18464 2.2042 0.309976
1 -6.50279 1.56306 0.522057
1 -5.74343 1.39598 -0.0263924
1 -5.02161 0.989313 -0.57418
1 -5.66694 0.61452 -1.14724
1 -6.13959 -0.00303089 -1.78182
1 -5.7536 0.626664 -2.44087
1 -5.12474 1.28108 -2.06442
1 -4.56629 1.90825 -2.51857
1 -3.66652 2.28195 -2.6158
1 -3.29521 2.06805 -1.72546
1 -3.72938 1.2406 -1.95529
1 -3.40883 0.983715 -2.79524
1 -2.73204 0.745724 -3.41389
1 -2.07816 0.264125 -2.94545
1 -1.45631 0.838331 -2.51928
1 -1.55517 1.56332 -3.08669
1 -1.95813 2.38839 -3.28892
1 -2.12106 2.13421 -4.18462
1 -3.04532 2.31109 -4.53246
1 -2.51355 2.30264 -5.31836
1 -2.93651 2.73853 -6.11406
1 -2.00502 2.7058 -6.28888
1 -1.98769 2.81646 -7.26668
1 -2.20799 3.10709 -8.12062
1 -2.58885 4.00174 -8.0491
1 -1.76342 4.052 -8.55693
1 -1.47277 4.37935 -7.68744
1 -1.58593 4.76449 -6.7707
1 -1.72455 4.11486 -6.07849
1 -2.27657 4.89969 -5.94273
1 -1.60382 4.79123 -5.27034
1 -1.51212 4.11293 -4.57538
1 -1.2003 3.56785 -3.88058
1 -1.06697 3.9031 -3.01973
1 -0.661307 4.09035 -2.24894
1 -1.20912 3.31069 -2.09255
1 -0.546642 2.65022 -2.3358
1 -0.0409523 2.91837 -3.13484
1 0.327998 2.66385 -4.02811
1 1.26554 2.7145 -4.299
1 2.22249 2.57879 -4.64025
1 1.82759 2.03434 -5.52079
1 1.49353 2.64062 -6.17104
1 0.625419 3.18771 -6.45254
1 0.918268 3.21882 -7.35905
1 1.72603 2.76797 -7.45673
1 1.90133 1.84039 -7.46531
1 1.9189 1.07978 -8.11578
1 2.43769 0.293443 -8.00201
1 2.68565 -0.386934 -7.36358
1 3.36102 -1.11998 -7.49883
1 3.51274 -0.865128 -8.4982
1 4.44655 -0.690103 -8.03699
1 4.45247 0.339546 -8.13569
1 4.64266 -0.100169 -8.95287
1 5.33292 -0.677443 -9.28874
1 6.08937 -1.15248 -8.9033
1 6.87486 -1.42456 -8.43712
1 6.58267 -1.29721 -7.57968
1 6.57101 -0.37655 -7.83186
1 7.22069 0.216675 -7.41395
1 7.30228 -0.142381 -6.5486
1 7.71763 0.76383 -6.47983
1 7.63483 1.2643 -7.25737
1 6.72486 1.51622 -7.10201
1 6.27821 2.02278 -6.42561
1 6.31145 3.0217 -6.37366
1 6.73685 2.81795 -5.50169
1 6.9087 3.07803 -4.63575
1 5.94172 3.0569 -4.60621
1 5.37682 3.81725 -4.32322
1 5.4674 4.72973 -4.13393
1 5.41496 4.81003 -3.1746
1 4.53989 4.36345 -3.2957
1 3.59254 4.22514 -3.60338
1 3.08994 4.64178 -4.3234
1 2.37195 4.37545 -3.68886
1 1.57482 4.01965 -3.39336
1 1.44867 4.87878 -2.92904
1 1.87038 4.91794 -2.00869
1 2.58862 5.07438 -1.35826
1 3.38907 5.41395 -1.0545
1 2.76998 5.24878 -0.34425
1 3.30778 5.5223 0.421767
1 3.88584 5.99805 0.985354
1 3.56805 6.85026 1.38281
1 3.15137 6.27466 2.10853
1 2.87061 6.25122 3.04826
1 3.75383 6.01712 3.25861
1 4.10303 5.36553 3.84513
1 4.74766 5.13751 3.17405
1 5.59127 4.8025 2.96093
1 5.95576 4.09956 3.41563
1 5.8951 3.25693 3.73935
1 5.0864 2.69952 3.54819
300
Atoms. Timestep: 54000
1 6.89204 8.44204 -4.91227
1 6.07571 8.20534 -4.40928
1 5.5998 7.72106 -3.72356
1 5.93819 6.9059 -4.00741
1 5.67387 6.02568 -3.73887
1 6.44516 5.95855 -3.16563
1 6.90119 5.6095 -2.4098
1 6.69027 5.7792 -1.35744
1 5.75688 5.98848 -1.50598
1 4.95468 5.56265 -1.67486
1 4.36742 5.09862 -1.08315
1 4.94551 4.29251 -1.17539
1 4.43566 3.52748 -1.14371
1 4.23496 3.80363 -0.302192
1 3.32571 4.16451 -0.459244
1 3.2684 4.38548 0.502914
1 2.9438 4.03967 1.32195
1 3.10491 3.24689 1.83129
1 3.55446 2.35682 1.798
1 2.73814 1.91065 1.65876
1 2.79265 1.73227 2.66621
1 2.02136 1.43604 3.13752
1 1.89947 1.1365 4.00855
1 1.50795 0.215276 4.13449
1 1.09241 -0.426967 3.53472
1 0.398881 -0.380921 2.79014
1 0.158484 -1.2506 3.13809
1 1.06328 -1.40988 3.46737
1 1.21814 -2.26598 3.13048
1 0.84371 -2.88226 2.57903
1 1.69373 -3.27095 2.827
1 1.97519 -4.11694 2.43619
1 2.58158 -4.11058 3.19091
1 3.37535 -3.80499 3.5704
1 2.94148 -4.2754 4.22818
1 3.46704 -4.9799 3.87872
1 4.22492 -5.53753 3.45307
1 4.60999 -6.07309 4.13541
1 4.56424 -5.29266 4.70821
1 4.35658 -5.40885 5.66024
1 4.69699 -4.49077 5.51315
1 5.65918 -4.46632 5.11904
1 6.47735 -4.06571 5.37948
1 6.50972 -4.92502 5.08832
1 6.66533 -4.51384 4.1966
1 7.05671 -4.32093 3.34886
1 6.40429 -3.62506 3.11834
1 6.51426 -3.14373 3.9509
1 6.76629 -2.35599 3.49784
1 6.86534 -2.33401 2.52946
1 5.98728 -2.85013 2.25096
1 5.58326 -2.4886 3.06581
1 4.99862 -3.05668 2.63193
1 4.81984 -2.10778 2.42075
1 4.85463 -1.09306 2.78735
1 4.40579 -0.561927 3.39651
1 4.18972 -0.518805 4.32192
1 3.7778 -0.693962 5.19748
1 4.14152 -0.600085 6.11932
1 4.67273 -0.813243 6.89308
1 4.23109 -0.547669 7.67016
1 3.68508 -1.15323 8.13902
1 4.46886 -1.74261 8.17072
1 4.58708 -2.72412 8.32943
1 4.73311 -2.61514 9.26572
1 4.18662 -3.23124 9.84182
1 3.49667 -3.1128 10.5529
1 3.20509 -4.0022 10.7918
1 4.01639 -3.8114 11.2586
1 4.7559 -4.47657 11.1077
1 5.2556 -5.2174 10.6977
1 5.9065 -5.86781 10.7791
1 6.0086 -5.8692 9.77911
1 5.29029 -5.97121 9.14353
1 4.77973 -6.81805 9.1286
1 4.42901 -7.51798 9.74829
1 3.87749 -6.83034 10.1733
1 4.3266 -6.14729 10.7625
1 4.02993 -5.70183 11.5579
1 3.25415 -5.03347 11.5027
1 2.92758 -5.69927 10.8539
1 2.05727 -5.23971 10.9409
1 1.84063 -4.36158 10.6197
1 1.51038 -3.58443 10.2398
1 0.560449 -3.45527 9.91671
1 1.00475 -3.37335 9.07377
1 1.58103 -2.72727 9.4987
1 2.18326 -2.10305 9.87322
1 1.35357 -1.60523 9.66843
1 0.99652 -1.75844 10.5596
1 0.559819 -0.964553 11.0372
1 0.695607 -0.525014 10.2571
1 0.748138 0.00323486 9.40237
1 1.22901 -0.0401887 8.59075
1 0.494626 -0.288252 7.99961
1 -0.0866667 -0.642231 7.29752
1 -0.671432 -0.809334 6.52656
1 -1.64115 -0.621837 6.7326
1 -2.04826 0.0325501 7.36161
1 -1.54346 0.244259 8.16735
1 -2.33954 0.713999 8.20871
1 -2.99944 0.822856 7.5341
1 -2.87265 0.594199 6.60024
1 -2.19873 0.971768 5.96306
1 -2.14667 1.82484 6.31294
1 -3.04364 2.28571 6.32891
1 -3.47528 1.65314 5.72145
1 -3.68849 1.83193 4.76968
1 -3.85656 1.19704 4.0732
1 -4.69808 1.66535 4.19553
1 -5.20804 0.868666 4.17831
1 -6.04275 1.31161 4.03814
1 -6.99401 1.10928 4.05242
1 -7.62248 1.70427 3.63782
1 -6.79488 2.23371 3.40316
1 -7.37249 2.0714 2.61055
1 -6.58573 2.23089 1.94849
1 -6.31661 2.16469 0.994986
1 -7.24164 1.90146 1.05687
1 -7.97613 1.2259 0.778783
1 -8.44263 0.324168 0.487196
1 -8.20988 0.826504 -0.398735
1 -8.33989 0.266186 -1.17506
1 -9.21034 -0.178831 -1.12333
1 -8.94998 -1.11721 -0.838405
1 -8.21953 -1.1684 -1.53794
1 -7.60675 -0.513581 -1.12814
1 -6.72631 -0.868564 -0.943935
1 -6.47439 -0.185026 -0.267321
1 -5.6215 -0.495909 0.0585673
1 -5.09715 -1.32626 0.0492536
1 -4.67619 -1.40236 0.847563
1 -3.97873 -1.06965 1.37225
1 -3.05262 -0.820284 1.39153
1 -2.72214 -1.2007 2.24017
1 -2.33457 -1.00245 3.06784
1 -1.68211 -0.551025 2.54134
1 -1.7196 0.167384 3.2049
1 -1.99119 1.10617 3.04646
1 -1.74053 1.78364 2.45436
1 -2.45868 2.38954 2.67415
1 -3.31481 2.50416 3.16896
1 -3.28262 3.02255 4.00699
1 -4.19949 2.85304 4.0812
1 -4.39894 2.81049 4.95643
1 -4.96265 2.01515 5.122
1 -4.43597 1.22878 5.42066
1 -4.82038 0.375039 5.64159
1 -5.00993 -0.622762 5.38887
1 -4.80772 -1.59341 5.40704
1 -5.27723 -1.68528 4.63614
1 -5.04337 -0.926921 4.10582
1 -5.82741 -0.409633 4.36025
1 -6.4107 -0.135923 3.67747
1 -6.63244 -1.03965 3.56629
1 -5.8654 -1.09102 2.9886
1 -5.6036 -0.980292 2.06518
1 -5.50611 -0.277394 1.416
1 -5.99938 0.293047 0.863831
1 -5.52741 1.05121 0.371712
1 -5.46781 1.84654 -0.226648
1 -6.31666 1.86501 -0.600621
1 -5.91592 2.48598 -1.24566
1 -5.46812 3.2494 -1.64722
1 -4.6624 2.73974 -1.40091
1 -3.74925 2.76003 -1.06368
1 -3.11475 2.21653 -0.490654
1 -4.00777 2.17828 -0.16795
1 -4.06714 1.85867 -1.05867
1 -4.98554 1.73013 -1.36225
1 -4.7073 2.10658 -2.21691
1 -4.95256 2.76913 -2.96558
1 -4.15808 3.26182 -3.17594
1 -4.25717 2.89439 -4.07726
1 -3.9659 3.78135 -4.26661
1 -3.42763 3.80107 -5.03047
1 -3.51449 2.91207 -5.42801
1 -4.24349 3.07857 -6.01618
1 -4.86334 2.37757 -6.21769
1 -4.58248 1.49461 -5.92186
1 -4.80685 1.01485 -5.03714
1 -5.70378 0.789825 -4.96277
1 -6.67831 0.871682 -5.17607
1 -6.61113 1.29282 -6.05597
1 -6.76936 1.22907 -6.99685
1 -7.75677 1.06624 -6.98187
1 -7.75448 0.493449 -7.77025
1 -8.02493 -0.146472 -8.48729
1 -8.87353 -0.168876 -8.8763
1 -9.43568 -0.915367 -9.24256
1 -10.2963 -1.29394 -9.09802
1 -9.91226 -2.07783 -8.66107
1 -9.574 -2.99716 -8.75111
1 -9.40297 -3.57671 -7.9628
1 -9.6809 -4.29869 -7.48409
1 -9.00906 -4.22813 -6.80541
1 -9.17195 -3.27474 -6.59724
1 -8.72994 -2.46961 -6.91138
1 -8.30798 -2.50833 -7.77904
1 -8.32257 -1.5056 -7.67696
1 -7.80528 -0.777737 -7.20877
1 -6.99468 -1.22779 -6.85214
1 -7.29897 -0.802561 -6.0318
1 -6.86203 -0.970102 -5.16772
1 -7.08295 -1.79641 -4.47292
1 -6.21395 -1.69922 -4.07484
1 -6.27614 -2.69213 -3.91166
1 -5.41935 -2.9046 -4.22277
1 -5.1759 -3.29286 -3.36753
1 -6.03103 -3.88095 -3.37092
1 -6.75854 -3.31949 -2.93741
1 -6.69336 -2.74876 -2.21019
1 -6.69903 -3.26131 -1.39328
1 -6.13882 -4.04149 -1.21973
1 -5.76686 -4.44871 -1.99914
1 -4.98118 -4.01355 -1.57958
1 -5.11964 -4.48197 -0.693554
1 -4.16592 -4.26057 -0.602234
1 -3.71347 -3.93261 0.234811
1 -2.98097 -4.5638 0.443745
1 -2.60083 -5.26373 1.0065
1 -2.40003 -5.65452 0.218344
1 -1.84334 -6.11773 0.783059
1 -0.834137 -6.1986 0.65798
1 -0.91638 -6.27517 1.66885
1 -0.0992308 -6.62084 1.14934
1 0.421452 -7.16609 0.601603
1 1.16672 -6.58222 0.323644
1 1.49755 -6.28795 -0.532453
1 2.23784 -6.30573 0.097467
1 2.3208 -5.54152 -0.474257
1 3.27145 -5.40488 -0.643367
1 3.26793 -4.3882 -0.574844
1 3.02867 -3.68176 -1.21138
1 2.62638 -2.7483 -0.907264
1 2.27498 -2.59258 -1.79088
1 1.39562 -2.22421 -1.65532
1 1.559 -1.85823 -2.55714
1 0.645437 -2.10822 -2.76133
1 0.593378 -2.80188 -3.46394
1 -0.268556 -2.46073 -3.7193
1 -0.700858 -1.72615 -4.29965
1 -0.738922 -1.05736 -4.92819
1 -0.653983 -0.224199 -5.33724
1 -1.18329 0.571696 -5.20317
1 -1.23848 1.15727 -5.86401
1 -1.942 1.60323 -5.3099
1 -2.87813 1.55386 -5.53566
1 -3.35145 0.966541 -6.14438
1 -3.46842 0.573702 -7.07156
1 -2.70826 0.960958 -7.49613
1 -1.98976 1.27645 -6.81309
1 -1.65643 0.895921 -7.64881
1 -0.957847 1.06775 -8.28499
1 -0.0924265 1.48508 -8.0557
1 0.321194 0.663794 -8.24628
1 1.27812 0.525588 -8.62401
1 1.66836 1.3763 -8.42091
1 1.48123 1.65999 -7.53768
1 1.81216 2.42771 -7.01926
1 2.5683 1.91713 -6.92537
1 2.96595 1.3949 -6.28074
1 3.87842 1.71054 -6.03373
1 4.63262 1.55059 -5.43772
1 5.09523 1.64746 -6.35914
1 5.89427 1.54721 -5.906
1 5.87055 2.57636 -5.93067
1 6.56179 2.67438 -6.61334
1 6.16877 3.53481 -6.61817
1 6.18011 3.41363 -7.50784
1 6.92001 2.83234 -7.57427
1 7.76189 2.38856 -7.1984
1 8.57205 2.9252 -7.14478
1 8.07723 3.68972 -7.62988
1 7.98934 3.07824 -8.41374
1 8.3864 3.35603 -9.25391
1 8.82893 3.53123 -10.126
1 8.25517 4.20911 -10.4441
1 7.51406 4.70342 -10.181
1 8.37402 5.21781 -10.0636
1 8.81456 5.98254 -9.74281
1 9.556 5.50604 -9.32065
1 9.91366 6.17129 -8.64493
1 10.709 6.48837 -8.21224
1 10.7519 7.35245 -8.578
1 11.1918 7.33377 -7.75456
1 11.7288 7.59965 -7.04408
1 11.8326 6.65689 -6.60329
1 11.3643 6.0621 -6.02333
1 10.5208 6.58346 -6.11615
1 9.55039 6.57452 -5.95929
1 9.90707 7.40316 -5.64797
1 9.58769 7.47607 -4.69987
1 8.65958 7.84304 -4.55063
1 8.4549 7.8432 -3.61156
1 8.14604 8.72268 -3.76088
1 8.4446 9.5624 -4.01482
1 7.79297 9.21248 -4.70297
1 7.09988 9.86637 -4.8726
1 6.51026 9.23408 -4.52472
300
Atoms. Timestep: 57000
1 5.63825 1.3371 -4.4332
1 6.55144 1.51366 -4.12404
1 6.98418 2.36294 -3.89589
1 6.61994 3.21382 -3.64147
1 6.94386 3.81714 -2.99309
1 6.42173 3.7456 -2.21574
1 6.52583 2.83846 -1.87505
1 7.15353 2.99003 -1.14225
1 6.77577 3.06409 -0.239777
1 6.79235 2.1308 -0.542407
1 7.54352 1.56964 -0.540723
1 7.74228 1.30801 -1.50553
1 7.81266 0.398596 -1.20687
1 8.19188 -0.346675 -0.816827
1 9.06888 -0.676234 -0.987801
1 8.92882 -1.63494 -1.1616
1 9.27456 -2.46575 -1.52036
1 10.1453 -2.8214 -1.31496
1 10.759 -3.54114 -1.43234
1 11.5161 -3.80065 -0.856308
1 11.3512 -3.81305 0.15027
1 11.1221 -4.75563 0.113549
1 10.7724 -4.50708 0.987643
1 9.94133 -4.39161 1.46072
1 10.1184 -3.87688 2.21604
1 11.0311 -4.18616 2.26325
1 10.8738 -3.33969 1.66942
1 10.958 -2.44428 1.34368
1 10.2431 -1.81236 1.36095
1 9.6279 -1.36967 1.96787
1 9.0178 -1.2632 1.17229
1 8.71627 -1.64671 0.339174
1 7.90814 -1.20269 0.653118
1 7.89234 -1.5918 1.53284
1 7.41564 -1.37112 2.35355
1 6.49387 -1.53541 2.55728
1 6.90422 -1.45633 3.43931
1 7.39451 -2.30364 3.38456
1 6.91753 -2.47252 4.24748
1 7.39461 -3.2181 4.06519
1 6.67214 -3.752 3.66012
1 6.1195 -4.17354 4.38734
1 5.23007 -3.94979 4.62234
1 4.60739 -4.5493 5.09649
1 4.8485 -3.92324 5.91121
1 4.68524 -3.08164 6.38327
1 5.06895 -2.80751 7.19271
1 5.81605 -2.22723 6.94351
1 4.88158 -1.74318 6.9824
1 4.45449 -1.64963 7.82886
1 3.64347 -1.46674 8.317
1 3.47404 -2.44012 8.47116
1 2.6924 -2.41853 9.05929
1 2.55319 -3.18187 9.66523
1 1.60489 -3.37313 9.90371
1 1.28727 -3.8377 10.6492
1 0.464337 -3.52684 10.2491
1 0.00991543 -3.32476 11.1246
1 -0.293857 -2.42535 11.3528
1 -0.624962 -2.36425 10.3952
1 -1.40013 -2.79422 10.8299
1 -1.88151 -2.91966 10.0336
1 -2.07292 -1.97704 9.97884
1 -1.37889 -1.643 10.643
1 -1.62032 -1.24051 11.4792
1 -0.861677 -1.10789 12.0295
1 -0.765408 -0.400853 12.6807
1 0.242218 -0.519688 12.7642
1 0.944756 -0.953624 13.1998
1 1.50088 -0.957605 12.3974
1 1.66811 -0.080069 12.0042
1 2.53101 -0.518678 12.3253
1 2.19056 -0.684559 11.3962
1 2.93967 -0.224826 11.0725
1 2.37895 -0.613529 10.4202
1 2.26828 0.257497 10.0974
1 1.77749 0.382047 9.30879
1 0.811154 0.568475 9.36868
1 0.949152 1.42061 9.01677
1 0.17033 1.90031 8.73287
1 0.979131 2.18236 8.30819
1 1.61301 2.81961 8.06321
1 1.88626 2.99548 8.99313
1 2.02286 3.78907 9.60511
1 1.12006 3.60163 9.51057
1 1.07248 4.26749 10.2127
1 1.25146 5.04072 9.6572
1 0.713884 5.33698 10.3752
1 0.333923 6.13593 10.0691
1 -0.659304 6.39699 10.0577
1 -0.47367 6.52931 9.11385
1 -1.24381 5.99063 9.23456
1 -1.78524 5.88792 8.42953
1 -2.69221 5.97293 8.79088
1 -3.27447 5.64897 7.98376
1 -3.72959 6.52783 7.87754
1 -4.62257 6.43359 8.10941
1 -4.56708 7.35682 7.68325
1 -4.35175 8.14194 7.07778
1 -4.96056 8.67125 7.5643
1 -5.31226 8.13942 6.73979
1 -5.92081 7.37162 6.43683
1 -5.60817 6.9655 5.62388
1 -4.70537 7.11836 5.3111
1 -4.66622 6.64354 4.4861
1 -3.72487 6.79363 4.60447
1 -3.5913 6.30885 3.7558
1 -4.19243 5.5363 3.8978
1 -3.49479 5.1882 4.48624
1 -4.01354 4.40245 4.23693
1 -4.42715 3.66035 3.74329
1 -3.51968 3.2396 3.52403
1 -4.32655 3.0058 2.99494
1 -3.59158 2.36731 3.0404
1 -3.64801 1.48549 2.63003
1 -3.51984 0.534862 2.65842
1 -4.46968 0.420904 2.44821
1 -4.15856 0.739039 1.5824
1 -3.2475 0.870282 1.34023
1 -2.61406 0.658503 0.64901
1 -2.47841 1.65165 0.715323
1 -1.77271 2.2594 0.807701
1 -2.49655 2.98309 0.728162
1 -2.95783 2.53292 0.0632415
1 -3.25592 3.43391 -0.123663
1 -3.16412 4.42277 -0.271775
1 -3.26238 4.96112 0.523614
1 -3.70233 5.73792 0.239758
1 -4.21044 6.30257 0.855114
1 -3.74036 7.07026 1.13145
1 -4.51094 7.03191 1.67253
1 -5.28913 7.66226 1.62277
1 -5.74668 7.61308 0.709303
1 -5.22462 8.0944 0.0660161
1 -5.15913 9.06487 0.273266
1 -6.02841 8.6891 0.0448898
1 -6.35889 9.00084 1.01344
1 -7.10075 8.61112 0.457064
1 -7.40694 9.47162 0.226696
1 -8.18162 9.81146 0.708002
1 -8.59256 9.46798 1.5714
1 -9.2514 8.8316 1.79438
1 -9.15184 8.99126 2.8024
1 -8.79916 8.04489 2.71744
1 -8.47444 7.59043 3.55833
1 -9.35895 7.25172 3.7513
1 -9.95982 7.89227 4.24268
1 -9.07443 7.88578 4.68956
1 -8.80032 7.11462 5.15679
1 -8.30576 6.27716 5.29944
1 -7.71486 5.70827 5.87445
1 -7.2839 6.05653 6.68025
1 -6.39211 5.90362 6.32253
1 -5.47601 6.17908 6.38368
1 -4.56333 6.06574 6.2135
1 -4.18574 5.21662 6.1042
1 -3.3978 5.64838 5.75475
1 -2.47787 5.7993 5.99919
1 -1.78355 5.49154 5.42752
1 -1.30852 4.61892 5.43944
1 -0.340739 4.71746 5.48671
1 -0.463769 3.91181 6.09805
1 -1.24383 3.49611 5.70314
1 -2.01828 2.91026 5.43661
1 -1.40198 3.08177 4.69075
1 -1.68894 2.62331 3.93169
1 -2.44922 2.6583 3.32549
1 -2.53199 2.99085 2.39562
1 -2.90259 3.73721 1.8285
1 -2.70222 4.59652 2.19039
1 -3.47545 5.15844 2.32141
1 -3.87036 4.45981 1.87559
1 -4.35812 3.93245 1.27614
1 -3.62837 3.32681 1.06115
1 -3.67983 2.49018 1.40312
1 -4.36857 2.41732 2.00925
1 -4.72487 1.85586 1.34761
1 -5.15496 1.20705 0.776998
1 -4.77054 0.561057 0.138674
1 -4.22847 -0.196843 0.0748793
1 -3.80671 -0.102909 -0.823191
1 -3.07925 -0.387429 -1.47175
1 -3.1169 -1.32598 -1.77779
1 -3.87135 -0.881946 -2.12614
1 -4.00876 -1.3532 -2.93763
1 -4.8444 -1.8631 -2.96161
1 -5.11168 -1.91459 -3.90524
1 -5.29012 -1.40217 -4.74467
1 -4.69472 -1.97534 -5.3227
1 -4.26165 -1.75929 -6.16718
1 -3.5339 -2.52828 -6.2182
1 -3.68619 -3.24135 -5.55893
1 -3.43249 -4.14603 -5.43348
1 -3.65822 -4.78996 -4.77892
1 -3.47956 -5.69327 -5.27752
1 -4.24912 -6.22803 -5.09052
1 -3.84137 -6.73951 -5.85532
1 -4.31692 -7.48292 -6.2213
1 -4.16724 -6.93982 -7.06478
1 -3.28433 -6.97692 -7.40653
1 -3.06989 -7.26269 -6.52679
1 -2.66342 -7.94744 -5.98524
1 -3.06007 -8.40515 -6.76824
1 -2.14301 -8.61399 -6.79632
1 -1.35494 -8.89248 -6.25677
1 -0.942539 -9.53911 -6.70766
1 -0.895845 -10.1963 -5.95989
1 -0.639148 -11.0908 -6.26967
1 -0.554902 -11.0578 -7.24953
1 -0.335653 -10.3222 -7.79563
1 -0.0519466 -11.2147 -8.10582
1 0.737154 -10.6876 -8.41144
1 0.779702 -10.9983 -9.29286
1 1.67077 -11.2181 -9.05021
1 2.26094 -11.4443 -8.31369
1 2.08428 -12.1282 -7.59495
1 1.79492 -13.047 -7.28896
1 2.47554 -13.6968 -7.18129
1 3.32075 -13.4581 -7.53796
1 4.07657 -13.0479 -7.11701
1 3.93836 -13.984 -6.74157
1 3.22894 -14.1425 -6.08869
1 3.0125 -13.2741 -5.86872
1 2.97083 -13.1268 -4.94777
1 2.02509 -13.3513 -4.91654
1 1.09549 -13.0363 -5.01957
1 0.680247 -12.4566 -5.71045
1 0.195137 -12.4787 -6.61189
1 -0.557539 -11.9531 -6.78672
1 -1.23008 -12.0698 -6.16868
1 -1.36318 -12.7111 -5.43316
1 -1.39091 -12.3023 -4.59476
1 -1.44079 -11.4709 -4.16603
1 -1.61351 -10.4388 -4.04753
1 -2.00638 -10.168 -3.25271
1 -1.7216 -9.2174 -3.07627
1 -1.6566 -8.28935 -2.67207
1 -1.57085 -7.36823 -2.61903
1 -1.47921 -6.79827 -3.35661
1 -0.87464 -6.24691 -2.8559
1 -0.981775 -5.55404 -3.58157
1 -0.513056 -4.88523 -4.10823
1 -0.771976 -4.85967 -5.00763
1 -1.64986 -4.48825 -5.08421
1 -1.92004 -4.68898 -5.9284
1 -1.83216 -4.03574 -6.74716
1 -1.12031 -4.41379 -7.30307
1 -0.81006 -5.29372 -7.75747
1 -0.807417 -6.07091 -8.33106
1 0.037175 -5.97466 -8.83375
1 0.816623 -5.72243 -9.30424
1 0.607959 -5.04687 -10.0791
1 0.676427 -4.14065 -10.1415
1 1.26298 -3.48578 -9.66273
1 1.34275 -2.58058 -9.30136
1 1.49559 -2.32213 -8.3696
1 1.76641 -1.39074 -8.69361
1 1.973 -1.19564 -9.64312
1 2.19089 -0.326194 -10.1487
1 2.49489 -0.0964765 -9.23123
1 2.47753 -0.631495 -8.46419
1 1.52737 -0.310234 -8.37725
1 1.3604 -0.0740607 -9.2691
1 0.765206 0.617469 -9.48584
1 1.39964 0.61304 -10.2065
1 1.1052 1.53026 -10.1297
1 0.649691 2.244 -10.5971
1 0.888266 3.26835 -10.5429
1 0.0715017 3.25909 -11.1197
1 -0.210096 3.83978 -10.3213
1 -0.632014 4.60421 -9.87147
1 -1.34428 5.1678 -10.0753
1 -2.21064 5.6179 -9.93571
1 -2.12919 6.41176 -10.5387
1 -2.14965 7.12456 -9.81637
1 -2.78068 7.79095 -9.53192
1 -3.11317 7.09527 -8.88848
1 -2.29422 6.68484 -8.33854
1 -2.2027 6.51737 -7.36784
1 -1.28507 6.82682 -7.29561
1 -0.606853 7.53564 -7.364
1 0.3284 7.54998 -7.49733
1 0.795835 7.36356 -6.59756
1 1.09659 6.56735 -6.16619
1 1.1472 5.7231 -6.62715
1 1.72269 5.08244 -7.09848
1 1.47051 4.75098 -6.26702
1 1.67045 4.91912 -5.37448
1 1.95775 5.76741 -4.97448
1 2.73825 6.27828 -4.95896
1 3.493 5.81795 -5.22661
1 3.95824 5.39189 -4.54126
1 4.63102 5.98072 -4.11997
1 4.85035 5.0466 -4.37382
1 4.61725 4.75431 -5.35632
1 4.38254 4.01315 -5.8943
1 4.04128 3.32724 -5.32864
1 3.98181 2.5181 -4.81889
1 4.43251 2.16913 -4.05879
1 4.75133 1.27502 -4.00087
300
Atoms. Timestep: 60000
1 5.65041 -2.41227 -2.60871
1 5.11838 -1.96133 -1.99927
1 4.88276 -1.13347 -1.67314
1 4.60994 -1.53216 -0.794065
1 3.77965 -1.94371 -0.795869
1 3.49584 -1.02976 -0.669516
1 3.43076 -0.408838 -1.42468
1 2.54691 -0.075123 -1.15745
1 2.79113 0.265781 -2.04097
1 3.19163 1.12633 -1.851
1 3.7015 0.87063 -1.06671
1 4.11031 1.01853 -0.156655
1 5.08009 1.07688 -0.288697
1 5.56173 1.9418 -0.577328
1 5.47699 1.592 -1.46977
1 5.55123 0.610178 -1.49984
1 5.2939 -0.0126103 -0.80096
1 6.01721 -0.088577 -0.21411
1 6.02203 0.0811385 0.758074
1 6.92014 -0.0508766 0.404332
1 7.10735 -1.03176 0.507432
1 7.80569 -0.335884 0.658342
1 8.20386 -1.03901 1.17299
1 8.58947 -1.92224 1.16061
1 9.49246 -2.28644 1.19584
1 9.64812 -1.43731 0.828785
1 9.54741 -0.647608 0.238778
1 9.66278 0.00027622 1.00264
1 9.00185 0.672821 0.777591
1 8.6659 0.863271 1.67882
1 8.12781 0.193685 2.30494
1 7.85358 -0.472152 2.96037
1 6.96982 -0.638225 3.45594
1 6.73434 -0.239617 4.33147
1 6.00114 -0.75775 4.59811
1 6.66665 -0.990232 5.29465
1 7.4913 -0.927535 4.88668
1 7.57159 -0.454978 5.74167
1 7.80325 0.266288 6.29747
1 8.68098 0.380038 5.93961
1 9.26534 1.0755 5.63506
1 9.55209 1.97525 5.86179
1 10.0829 1.73674 6.58452
1 10.4216 2.33091 7.2218
1 9.80873 3.04418 6.85423
1 9.00632 3.50577 6.59192
1 9.81582 4.09625 6.8279
1 10.2758 4.12071 7.67117
1 10.6001 3.35472 8.20156
1 10.7965 3.75912 9.11479
1 10.8911 2.91132 9.56585
1 10.2147 3.32409 10.1534
1 9.65717 3.21721 9.40516
1 8.77761 2.89437 8.96887
1 8.37431 3.14033 8.14544
1 7.77384 3.89045 7.98153
1 7.99748 4.78083 8.30032
1 7.10795 5.05729 7.97185
1 6.5091 5.81711 7.81962
1 7.27039 6.3489 7.73738
1 6.80966 6.61741 6.88816
1 7.20048 6.99827 6.1238
1 6.84527 7.42019 5.39046
1 6.12968 7.20034 6.00166
1 6.31229 8.25288 5.90419
1 5.7198 8.47115 5.1434
1 4.79668 8.17173 5.08083
1 4.48988 7.57716 5.77676
1 4.20031 7.99044 6.55739
1 3.59953 8.34092 7.17162
1 3.16454 8.11604 7.98202
1 3.61351 8.86914 8.48764
1 3.634 9.81924 8.48068
1 3.80316 10.5338 9.05633
1 3.30591 9.9027 9.51072
1 2.61443 10.5376 9.62516
1 1.80163 10.6235 10.1497
1 1.68339 10.1768 11.0313
1 1.11064 9.32709 11.2835
1 0.955585 9.18874 10.3664
1 1.16376 9.63869 9.55633
1 1.48583 9.75733 8.68704
1 0.71424 10.3045 8.43579
1 0.555282 9.3224 8.47897
1 -0.157308 9.18539 9.06066
1 -0.819155 9.6653 8.49541
1 -0.896945 9.05456 7.70759
1 -0.241936 8.89143 6.92161
1 -0.430791 7.95004 7.07321
1 -0.418788 8.13131 6.06567
1 -1.23509 8.06516 5.69507
1 -1.92408 7.38579 5.74289
1 -2.03035 6.6338 5.12253
1 -2.91625 7.06561 4.91599
1 -3.24756 6.232 5.29603
1 -3.19116 5.43277 4.7453
1 -4.09834 5.07212 4.99138
1 -4.45781 5.6435 4.33702
1 -4.71503 6.29351 5.04209
1 -5.19755 6.84942 4.47602
1 -4.63127 6.81821 3.7143
1 -5.04724 7.73496 3.76862
1 -5.99276 7.99289 3.57541
1 -6.64039 8.00439 4.25158
1 -7.36274 7.57446 4.6669
1 -8.12567 7.99006 4.22691
1 -8.71191 7.47826 4.81675
1 -8.78231 7.09298 5.65104
1 -8.35372 7.43112 6.49859
1 -8.56071 6.55914 6.79556
1 -8.53369 5.65635 7.02642
1 -7.71001 5.21914 6.80417
1 -7.81961 5.16172 5.8819
1 -7.16189 4.4435 6.05334
1 -6.46775 5.16726 6.26122
1 -6.17175 4.34997 5.74143
1 -5.60681 4.23535 4.96451
1 -5.30442 3.33338 5.09921
1 -5.19662 2.30542 5.1522
1 -4.54113 2.6269 4.54671
1 -4.35501 1.68913 4.65642
1 -4.15231 1.45685 3.74285
1 -4.0705 1.26951 2.77075
1 -3.70883 1.39906 1.85689
1 -3.11973 1.05247 1.24205
1 -2.68828 0.702126 0.422286
1 -2.5628 0.0511507 -0.314436
1 -2.19962 0.793158 -0.882826
1 -2.81889 0.265304 -1.37429
1 -3.64749 0.673234 -1.79646
1 -4.56931 0.79311 -1.94118
1 -4.96677 1.63821 -1.77156
1 -5.34067 1.13252 -0.964161
1 -6.20813 0.955553 -0.644018
1 -6.36289 0.56712 0.175717
1 -7.05078 0.574703 0.823832
1 -6.75679 -0.276156 1.06605
1 -7.00223 -0.361063 2.02458
1 -6.27926 -0.0818473 2.65075
1 -5.58319 -0.750984 2.60493
1 -5.32096 -1.44929 1.93562
1 -4.51666 -2.05498 1.66998
1 -4.68316 -2.35324 2.58285
1 -3.72519 -2.34272 2.89141
1 -3.00007 -1.80182 2.58314
1 -2.25754 -1.63671 1.9777
1 -1.73432 -1.71045 1.1762
1 -1.15404 -2.29313 0.785506
1 -0.491436 -1.94575 1.38138
1 -0.451942 -1.61894 0.501958
1 0.36084 -1.82938 0.0699737
1 0.340065 -2.80171 0.00517271
1 0.557821 -3.00229 0.856268
1 1.45329 -2.58706 0.836221
1 1.60949 -1.83923 0.190855
1 1.86092 -0.994461 0.481675
1 1.71121 -0.855805 1.44994
1 2.24155 -0.147511 0.965517
1 2.07218 0.691971 0.622872
1 1.54933 0.682634 1.40174
1 1.00448 0.354451 0.654152
1 0.0864585 0.371906 0.962949
1 -0.593278 -0.119756 1.39564
1 -1.48349 0.290076 1.37039
1 -1.53733 0.612473 2.25235
1 -1.18871 1.53044 1.97038
1 -2.08886 1.5723 1.49202
1 -2.70791 2.01868 0.909054
1 -3.61968 2.14773 1.14774
1 -3.42898 2.50311 0.234081
1 -3.82019 2.15252 -0.618851
1 -4.16967 1.28498 -0.834259
1 -4.41652 0.349617 -0.783589
1 -4.20241 -0.414119 -0.183595
1 -4.91958 -0.65537 0.421595
1 -5.27633 -1.58724 0.469923
1 -6.11688 -1.81991 0.844139
1 -6.11538 -2.69072 0.407363
1 -5.22548 -3.09137 0.380707
1 -5.67275 -3.28186 -0.382885
1 -5.20156 -3.84368 -1.01355
1 -5.12011 -4.64654 -1.50806
1 -4.87187 -4.10866 -2.25638
1 -5.39598 -3.80253 -2.9856
1 -6.1243 -4.4216 -2.99533