400
Atoms. Timestep: 200000
2 0 0 -190
1 5.03023 9.31598 -180.809
1 5.8771 11.0307 -179.311
1 6.35936 12.0618 -178.568
1 6.90745 12.8291 -177.738
1 6.7798 13.6966 -177.065
1 7.2665 14.3904 -176.39
1 7.34505 15.3682 -176.587
1 6.64062 15.8678 -176.256
1 6.19389 15.8912 -175.367
1 5.63936 16.5821 -174.955
1 6.13614 16.877 -174.208
1 6.67362 16.6298 -173.445
1 6.41733 15.905 -172.892
1 5.66995 15.3263 -172.693
1 5.72024 15.1002 -171.674
1 6.50443 15.7308 -171.708
1 6.20003 16.5865 -171.598
1 6.60215 17.508 -171.328
1 7.45057 17.9426 -171.034
1 7.1318 18.8347 -171.323
1 7.24968 18.9213 -170.374
1 7.56062 19.5612 -169.76
1 7.69918 19.2785 -168.821
1 7.57398 18.9888 -167.928
1 6.76285 19.3092 -167.413
1 5.81139 19.3284 -167.587
1 5.36099 19.0803 -166.729
1 6.10086 19.2333 -166.138
1 5.45393 19.7771 -165.66
1 6.04455 20.4589 -166.106
1 6.63003 21.0264 -165.595
1 6.05899 21.7613 -165.315
1 6.70203 22.3842 -164.94
1 6.83554 22.6036 -164.016
1 6.21528 23.2324 -164.325
1 6.84876 23.6769 -164.843
1 7.10795 23.6545 -165.779
1 8.00622 23.9666 -165.908
1 8.80602 23.3908 -165.996
1 8.84748 22.8253 -165.195
1 8.79609 21.9082 -165.386
1 9.10476 21.5367 -164.607
1 9.92723 21.321 -164.181
1 10.5264 21.2038 -163.384
1 10.3918 20.4852 -162.829
1 10.3523 19.5956 -163.203
1 11.0715 19.2819 -163.701
1 11.4299 18.4102 -163.372
1 12.1452 18.5537 -162.76
1 12.9655 18.9362 -162.412
1 13.7912 19.5049 -162.131
1 13.4069 18.9857 -161.423
1 14.1398 18.407 -161.686
1 14.973 18.0025 -161.756
1 15.6587 17.336 -161.79
1 14.8242 17.0189 -162.221
1 15.0866 16.375 -162.985
1 14.2221 16.1239 -162.542
1 13.7559 15.4342 -162.087
1 13.2811 15.2578 -161.279
1 13.0149 15.8619 -160.572
1 12.8821 15.1137 -159.997
1 12.4812 15.301 -159.163
1 13.1043 15.5555 -158.447
1 13.557 14.7555 -158.675
1 13.6289 14.4164 -157.711
1 14.4027 14.7723 -157.284
1 14.8376 15.5974 -156.888
1 14.5418 16.046 -156.071
1 13.8676 15.7338 -155.439
1 12.9794 15.9075 -155.148
1 13.3274 16.74 -155.325
1 13.1191 17.5526 -155.888
1 12.5141 17.8695 -156.511
1 12.3278 18.26 -157.363
1 12.7175 19.1222 -157.388
1 12.8177 19.3903 -156.401
1 13.6124 19.6928 -156.84
1 14.3466 20.309 -156.745
1 14.3532 20.8552 -155.913
1 15.2494 21.1545 -156.243
1 15.153 21.5417 -157.157
1 15.805 21.5218 -157.858
1 15.3308 21.9043 -158.569
1 14.719 22.2952 -159.167
1 14.484 23.081 -158.679
1 14.4244 23.3182 -157.783
1 14.3662 22.956 -156.883
1 14.6344 23.8452 -156.937
1 15.4704 24.2243 -157.238
1 16.1047 24.2037 -157.955
1 16.4397 24.0882 -158.831
1 16.5502 24.0022 -159.781
1 17.381 24.4676 -160.239
1 17.2314 24.2607 -161.187
1 17.6833 24.6269 -162.034
1 18.4432 25.2269 -162.022
1 19.132 24.9015 -161.536
1 19.3411 25.7965 -161.961
1 20.1854 26.2662 -162.062
1 21.1323 26.532 -161.908
1 21.7127 25.7432 -162.065
1 22.1372 25.8062 -161.305
1 21.5627 26.4435 -160.909
1 20.8235 26.7597 -160.483
1 20.9981 26.879 -159.516
1 20.9171 25.9073 -159.639
1 20.0537 25.8014 -159.19
1 19.0998 26.0236 -159.289
1 19.2989 25.2153 -158.782
1 18.632 25.5043 -158.161
1 18.6027 25.8727 -157.241
1 18.1956 25.1009 -156.88
1 18.2469 24.2474 -156.476
1 17.8282 23.4697 -156.126
1 17.1772 22.7813 -156.173
1 17.9748 22.6073 -155.536
1 17.9269 21.6635 -155.371
1 17.5906 20.8203 -155.091
1 16.6622 20.6542 -154.895
1 16.3211 20.2682 -154.068
1 15.6236 20.5257 -154.729
1 15.4536 21.4502 -154.667
1 14.5377 21.0181 -154.692
1 13.7242 21.0044 -155.148
1 13.7926 20.2305 -154.531
1 13.4268 20.5268 -153.691
1 13.5092 21.2776 -153.102
1 13.7231 22.1451 -152.762
1 13.1575 22.6431 -152.104
1 12.3207 22.6849 -151.737
1 12.392 23.4323 -152.4
1 12.3625 24.3229 -152.77
1 12.7076 25.2039 -152.858
1 12.3596 25.6632 -152.171
1 11.5214 26.1729 -151.957
1 11.0216 26.1978 -152.786
1 10.5534 26.8712 -153.319
1 10.5657 26.5042 -154.201
1 10.2803 26.2894 -155.078
1 9.69879 25.5865 -155.385
1 10.2542 25.2495 -156.035
1 9.35425 24.884 -156.004
1 9.25859 24.3288 -155.23
1 9.03484 23.6882 -154.552
1 8.1847 23.5087 -154.16
1 8.28706 23.0937 -154.985
1 9.09125 22.6223 -154.914
1 9.78056 22.4063 -154.3
1 9.98729 22.1702 -155.326
1 10.6372 22.2819 -156.018
1 10.3984 21.7783 -156.846
1 9.70315 22.2846 -157.312
1 9.65902 21.4006 -157.714
1 9.24473 21.6063 -156.775
1 8.38234 21.4731 -157.03
1 8.12186 22.2543 -156.443
1 7.19511 22.1167 -156.091
1 7.39642 21.237 -156.329
1 6.43137 21.3071 -156.38
1 5.71122 21.5548 -156.97
1 5.19981 20.8463 -156.416
1 4.86281 20.2555 -157.036
1 5.44089 19.9152 -157.718
1 5.10463 19.7074 -158.55
1 4.13137 19.8788 -158.619
1 3.99215 19.0824 -158.157
1 3.51133 19.8528 -157.742
1 3.05211 19.7073 -158.609
1 2.82131 19.4765 -159.483
1 3.19667 18.6282 -159.43
1 2.20194 18.5453 -159.669
1 1.33717 18.4158 -159.357
1 0.479436 17.8409 -159.443
1 0.302147 17.0802 -160.057
1 -0.652698 16.9681 -159.959
1 -0.699465 16.2827 -160.618
1 -0.475219 16.1215 -161.533
1 -0.530208 15.2125 -161.549
1 0.146849 15.224 -160.921
1 0.720566 14.4519 -160.943
1 1.41349 14.7362 -161.506
1 2.12224 14.0329 -161.716
1 1.55826 13.2146 -161.927
1 1.11527 12.4384 -161.548
1 1.26933 11.6559 -160.936
1 0.723773 11.0824 -160.465
1 0.222859 10.4864 -161.034
1 -0.559734 9.9061 -160.802
1 -0.726333 10.4728 -160.011
1 -0.700214 9.55011 -159.684
1 -1.50624 9.40957 -159.122
1 -1.01243 9.91964 -158.465
1 -1.57514 10.2668 -157.745
1 -1.04769 9.69008 -157.098
1 -1.04395 9.80327 -156.108
1 -0.077288 9.85517 -156.094
1 -0.307204 10.2728 -155.233
1 0.205198 10.5728 -154.536
1 -0.0507711 11.1036 -153.751
1 -1.01129 11.1542 -153.605
1 -1.81235 11.7454 -153.427
1 -2.07806 12.6442 -153.417
1 -2.18658 13.094 -154.24
1 -2.75908 13.879 -153.995
1 -2.45634 14.6163 -153.46
1 -1.77368 15.1822 -153.906
1 -2.13539 15.6047 -154.721
1 -2.31936 15.6186 -155.624
1 -1.43206 15.9472 -155.459
1 -1.01923 16.8004 -155.225
1 -1.59546 16.9873 -155.958
1 -2.03949 17.8316 -155.692
1 -1.60374 18.2522 -154.905
1 -0.762028 18.039 -155.498
1 -0.152524 18.4356 -156.233
1 0.736881 18.0251 -156.416
1 1.10825 17.5854 -157.244
1 1.99089 17.5088 -156.869
1 2.34682 16.7539 -157.37
1 2.26083 16.9529 -158.362
1 2.25401 17.6257 -159.081
1 2.24112 17.0631 -159.914
1 3.07995 17.4827 -160.137
1 2.79693 17.5552 -161.015
1 1.95633 18.0867 -161.135
1 1.12958 17.8661 -161.528
1 0.997107 18.7026 -160.941
1 0.343306 19.405 -160.856
1 -0.534043 19.8892 -160.665
1 -1.25665 19.7061 -160.077
1 -1.56475 18.8023 -160.189
1 -1.57326 18.2785 -161.029
1 -2.25663 17.9505 -161.689
1 -1.62198 18.4767 -162.219
1 -1.58401 19.413 -162.237
1 -2.38753 19.5002 -161.692
1 -2.92158 18.7779 -162.085
1 -3.34421 18.937 -161.239
1 -3.70737 19.793 -161.426
1 -3.92007 20.5466 -160.972
1 -3.64153 21.2381 -160.379
1 -4.54272 21.6405 -160.33
1 -5.37913 21.2649 -160.563
1 -5.09245 20.375 -160.455
1 -5.58536 20.4698 -159.459
1 -5.27545 20.5764 -158.51
1 -5.82771 20.0283 -158.022
1 -6.53109 20.1981 -157.353
1 -6.51249 20.6992 -156.486
1 -7.01932 21.5295 -156.518
1 -7.35393 21.7725 -157.384
1 -7.56613 21.9812 -158.324
1 -6.77329 22.47 -157.992
1 -5.92121 22.2424 -158.508
1 -5.29946 21.924 -157.774
1 -5.13999 22.8344 -158.028
1 -4.50269 23.5769 -157.626
1 -4.92685 24.1113 -158.339
1 -4.85342 24.3274 -159.282
1 -5.72243 23.8951 -159.073
1 -5.84474 24.7089 -158.57
1 -5.27048 25.1046 -157.827
1 -5.74044 25.3056 -157.064
1 -5.09744 25.935 -156.934
1 -4.56222 25.6621 -156.146
1 -4.03192 26.254 -155.56
1 -3.12252 26.0745 -155.537
1 -2.22111 26.4436 -155.496
1 -2.25797 26.8539 -154.662
1 -2.5136 26.6361 -153.728
1 -3.51344 26.7296 -153.857
1 -3.48248 27.5978 -153.611
1 -4.31668 27.4576 -154.062
1 -4.48953 26.478 -154.237
1 -4.70768 26.706 -153.276
1 -4.33095 26.9612 -152.409
1 -4.15868 26.9502 -151.471
1 -4.3201 27.8787 -151.876
1 -3.62224 28.2117 -151.241
1 -2.73041 28.3436 -151.53
1 -2.08055 28.468 -150.87
1 -2.62518 28.258 -150.12
1 -2.85463 27.7331 -149.323
1 -3.19896 26.8609 -149.46
1 -2.64712 26.7006 -148.704
1 -3.19325 25.9771 -148.32
1 -2.72209 25.4448 -148.988
1 -1.86315 24.9508 -148.891
1 -1.0691 24.6914 -148.376
1 -1.1513 24.1444 -147.565
1 -2.00644 23.7581 -147.948
1 -2.30475 22.8612 -147.609
1 -1.73146 22.2926 -148.138
1 -0.805398 22.7121 -148.145
1 -0.719368 22.4731 -149.108
1 -1.29936 22.0633 -149.7
1 -0.363213 21.6883 -149.804
1 0.351627 21.5836 -149.124
1 0.374816 21.1438 -148.181
1 1.28136 20.8246 -148.385
1 1.99101 21.2007 -147.853
1 2.54897 20.4918 -147.576
1 2.61219 19.7816 -148.264
1 2.91594 18.914 -148.157
1 3.1026 18.3481 -147.417
1 3.07327 17.8236 -146.564
1 3.5444 17.1048 -146.03
1 4.32983 17.2548 -146.585
1 4.70221 18.1728 -146.632
1 5.37916 18.7414 -146.316
1 5.42416 18.7928 -147.281
1 5.60516 19.1475 -148.115
1 6.38021 18.9728 -147.622
1 6.23058 18.0934 -147.302
1 5.78881 18.0526 -148.179
1 6.27239 18.7372 -148.69
1 7.0441 18.5951 -149.216
1 7.72796 17.8836 -148.879
1 7.88384 17.1069 -149.472
1 8.68723 17.4658 -149.699
1 7.96559 18.0128 -150.063
1 7.56107 18.1843 -150.867
1 6.836 17.7157 -151.296
1 6.54962 17.4025 -152.274
1 7.40688 17.8297 -152.461
1 7.19791 18.0857 -153.431
1 7.58233 17.4612 -154.076
1 7.9202 16.6832 -154.454
1 8.34612 16.0786 -153.824
1 7.61527 16.6196 -153.495
1 7.26568 16.5761 -152.592
1 6.99959 15.7462 -152.895
1 6.30732 16.2528 -153.365
1 5.92828 16.5062 -152.515
1 6.50442 16.084 -151.838
1 5.89133 15.8804 -151.065
1 5.16772 16.5743 -150.997
1 4.24128 17.0445 -150.898
1 3.59089 17.3648 -151.483
1 3.11965 17.7288 -152.302
1 2.23038 17.488 -152.533
1 2.45701 17.2095 -151.678
1 2.95698 16.3706 -151.809
1 2.51952 15.6683 -152.26
1 1.79164 15.4189 -151.671
1 1.67004 14.4777 -151.428
1 1.18253 13.7776 -151.89
1 1.34915 13.2678 -152.682
1 0.410013 13.3996 -152.704
1 -0.485911 13.7376 -152.767
1 -0.389916 14.1517 -153.68
1 -1.21251 13.6119 -153.96
1 -0.726271 12.7806 -153.835
1 -0.325193 13.1952 -154.617
1 -0.727434 12.8672 -155.435
1 -1.63387 13.1938 -155.437
1 -1.14933 13.5909 -156.197
1 -1.06395 13.597 -157.165
1 -2.0592 13.6318 -157.091
1 -1.93833 13.4884 -158.106
1 -2.25869 12.7738 -158.609
1 -2.81921 11.9826 -158.636
1 -2.62902 12.1138 -159.568
1 -2.68534 12.2564 -160.538
1 -3.34832 12.6025 -161.163
1 -2.94326 13.463 -161.395
1 -2.35255 14.1975 -161.403
1 -2.90052 14.1581 -160.639
1 -3.31557 14.8722 -161.088
1 -3.82978 15.0798 -160.304
1 -4.48297 14.4321 -160.55
1 -5.4013 14.4842 -160.661
1 -5.99291 14.921 -160.072
1 -6.71402 14.1638 -160.131
1 -7.6512 14.2471 -159.699
1 -7.21965 13.887 -158.959
1 -7.01214 12.9231 -158.813
1 -7.85139 12.7377 -159.225
1 -8.79584 12.6249 -159.185
1 -9.47118 12.2919 -159.801
1 -9.40298 12.2409 -160.747
1 -9.69273 12.9005 -161.338
1 -10.4275 13.2634 -161.77
1 -10.1427 12.8768 -162.586
1 -10.7846 12.2269 -162.234
1 -11.5412 12.122 -162.723
1 -12.1063 12.4979 -162.009
1 -12.1011 13.4299 -161.644
1 -12.9374 13.8533 -161.379
1 -13.1532 13.6 -160.511
1 -13.8586 13.3271 -159.867
1 -14.7847 13.0082 -160.038
1 -15.6889 12.8055 -159.75
1 -16.5536 12.4243 -159.631
1 -17.6932 12.0904 -159.327
1 -18.9237 11.5369 -159.038
1 -21.1139 10.5073 -158.432
2 -33.3322 4.57253 -155.035
400
Atoms. Timestep: 210000
2 0 0 -190
1 1.60743 12.2956 -183.542
1 1.92961 14.5586 -182.491
1 2.15801 15.6877 -181.761
1 2.25712 16.7031 -181.276
1 2.25025 17.6422 -180.799
1 2.19344 18.5471 -180.456
1 2.25685 18.9539 -179.612
1 1.35412 19.4058 -179.757
1 1.71458 19.581 -178.883
1 2.44482 19.6688 -178.217
1 2.4074 20.4282 -177.662
1 2.31568 21.2046 -177.101
1 2.6442 22.0061 -176.653
1 2.95852 22.8957 -176.605
1 2.98513 22.6402 -175.65
1 3.54133 21.9795 -176.084
1 3.09311 21.529 -175.342
1 3.32392 20.6204 -175.456
1 3.49364 20.4236 -174.499
1 3.94264 21.2182 -174.199
1 4.73877 21.1247 -173.62
1 4.40357 21.7573 -173.017
1 4.85347 21.568 -172.074
1 5.33263 21.9463 -171.323
1 5.3524 22.8986 -171.344
1 4.54867 23.4282 -171.46
1 3.74295 22.9033 -171.141
1 2.9253 22.3879 -171.05
1 3.23278 21.8575 -171.808
1 2.83674 21.0121 -172.109
1 3.52648 20.5813 -171.614
1 4.56875 20.5051 -171.623
1 4.6406 20.2316 -170.644
1 4.12831 20.9495 -170.236
1 4.3383 21.7146 -169.613
1 5.1 21.2135 -169.165
1 4.35831 20.9225 -168.634
1 4.15503 20.0956 -168.293
1 4.03128 20.1408 -167.365
1 3.08664 20.3506 -167.262
1 2.87462 20.1717 -166.376
1 2.52806 19.3776 -165.975
1 2.2336 20.0369 -165.39
1 3.07489 20.4761 -165.397
1 3.21401 21.2825 -164.87
1 2.79719 21.9907 -164.363
1 3.62261 22.5132 -164.41
1 2.95294 23.0859 -164.688
1 3.78599 23.5524 -164.873
1 3.52784 24.492 -164.824
1 3.63813 25.2106 -164.174
1 4.05762 25.9579 -163.671
1 4.49793 25.6891 -162.876
1 5.1109 26.3489 -162.751
1 5.99093 26.0387 -162.844
1 5.66563 26.3975 -163.631
1 5.16446 27.0468 -164.043
1 4.37628 26.9307 -163.575
1 4.28279 27.159 -164.533
1 3.46455 27.5003 -164.846
1 3.24052 28.3002 -164.325
1 2.36817 28.6945 -164.248
1 2.29636 29.558 -163.735
1 1.8287 30.38 -163.492
1 2.79167 30.41 -163.372
1 3.12202 30.8067 -162.461
1 3.57813 30.7919 -161.548
1 3.2342 30.2026 -160.725
1 3.73636 29.4408 -160.422
1 3.2042 29.1796 -159.69
1 2.50808 28.8228 -159.099
1 1.71944 29.3209 -158.802
1 1.71942 30.2638 -158.376
1 0.843408 29.9032 -158.697
1 0.811415 28.9295 -158.798
1 0.1518 28.5671 -159.356
1 0.841606 28.0646 -159.802
1 1.70971 27.567 -159.795
1 1.44863 27.015 -159.132
1 1.74991 27.5078 -158.346
1 0.835812 27.6872 -158.007
1 0.412298 26.8946 -158.333
1 0.555324 26.0018 -158.146
1 0.56284 25.0165 -158.2
1 0.595561 25.2746 -159.14
1 1.15146 24.6097 -159.56
1 0.463039 23.923 -159.751
1 -0.188476 23.32 -159.612
1 -0.265355 22.897 -160.531
1 0.580262 23.0022 -160.833
1 0.674143 22.4432 -161.656
1 0.922046 21.9372 -160.924
1 1.19771 21.5808 -161.741
1 0.944841 20.6697 -162.077
1 1.39112 20.4728 -161.219
1 1.55958 19.7001 -161.681
1 1.8578 19.1794 -160.909
1 1.73349 18.9084 -160
1 2.05034 18.0758 -160.354
1 2.29007 17.309 -159.79
1 2.07335 17.8709 -159.044
1 2.70369 17.8341 -158.362
1 2.58693 18.7662 -158.342
1 1.75793 18.4694 -157.779
1 1.41431 19.2887 -157.985
1 2.00861 19.7152 -158.579
1 2.23475 19.885 -159.507
1 2.85101 20.6439 -159.744
1 2.80252 20.7061 -158.827
1 3.82199 20.6438 -158.673
1 4.55048 21.2207 -158.316
1 5.0477 20.4376 -157.968
1 5.81363 20.1679 -158.459
1 6.35004 20.9542 -158.41
1 5.89798 21.7338 -158.724
1 6.5772 22.354 -158.353
1 6.36392 23.2612 -158.537
1 5.73645 24.0176 -158.379
1 5.56901 23.9044 -157.439
1 6.00505 23.7409 -156.589
1 5.0472 23.664 -156.42
1 5.62009 23.1479 -155.858
1 5.56301 22.2218 -156.021
1 4.96239 21.46 -155.882
1 4.91485 20.8296 -156.567
1 4.6229 19.9409 -156.912
1 4.71382 19.4567 -156.088
1 3.76208 19.4282 -155.984
1 3.70574 19.2957 -155.015
1 2.82294 19.4413 -155.004
1 1.87703 19.3168 -154.779
1 1.5672 18.3488 -154.731
1 1.1548 18.9557 -155.39
1 1.14994 18.7691 -156.332
1 1.35355 17.9612 -156.922
1 0.413249 17.9438 -157.326
1 0.882222 17.681 -158.093
1 0.440576 18.257 -158.635
1 0.670323 18.2462 -159.536
1 0.148504 19.1032 -159.464
1 0.178272 19.4765 -158.51
1 -0.733524 19.1083 -158.527
1 -1.01991 18.1898 -158.548
1 -1.60031 18.5678 -157.876
1 -2.25362 18.6339 -157.196
1 -2.70077 19.4084 -156.845
1 -3.44882 18.8379 -157.06
1 -3.64929 18.5365 -156.183
1 -3.03935 17.9073 -155.784
1 -2.76995 16.9852 -155.772
1 -2.38634 17.14 -154.813
1 -1.49842 17.1917 -154.437
1 -1.47368 16.6442 -155.149
1 -2.28296 16.088 -155.362
1 -3.04334 16.3328 -154.947
1 -3.79682 15.7392 -155.129
1 -3.24707 15.3929 -154.395
1 -2.81445 14.5826 -154.266
1 -2.41349 14.6451 -153.406
1 -2.34095 14.4247 -152.425
1 -2.47746 14.8726 -151.578
1 -3.43222 14.8203 -151.722
1 -3.02979 14.0152 -151.355
1 -2.3951 14.0855 -150.601
1 -2.78935 13.6868 -149.835
1 -2.28686 12.9522 -149.529
1 -2.30312 12.3252 -150.348
1 -3.02241 12.6547 -151.038
1 -2.16026 12.5237 -151.341
1 -1.94382 12.1937 -152.257
1 -1.46351 11.9518 -153.08
1 -1.41267 11.4386 -153.877
1 -1.4202 10.5432 -153.483
1 -1.49823 10.1086 -152.683
1 -1.78177 9.97962 -151.758
1 -1.46905 10.4226 -150.961
1 -0.787707 10.7181 -150.319
1 0.0171452 11.2366 -150.224
1 0.795186 10.7128 -150.059
1 1.32963 10.7058 -149.14
1 2.31069 10.5789 -149.289
1 3.03315 10.0615 -148.829
1 3.66872 10.5196 -149.375
1 3.32698 9.96779 -150.141
1 3.46938 10.6414 -150.814
1 3.49308 10.1508 -151.641
1 4.43921 10.4009 -151.409
1 5.29796 10.2886 -151.099
1 5.7276 9.84338 -150.363
1 6.31335 10.624 -150.476
1 5.52694 11.1183 -150.131
1 4.95305 11.303 -149.367
1 5.84408 11.3778 -149.112
1 5.40281 11.9936 -148.502
1 6.28918 12.0454 -148.171
1 5.92466 12.0371 -147.275
1 5.49702 12.144 -146.381
1 4.89367 12.8303 -146.784
1 4.40911 13.507 -146.182
1 3.8755 14.2542 -146.128
1 3.2614 14.8112 -145.616
1 2.57738 14.9293 -146.292
1 2.07238 14.7786 -147.132
1 2.06334 13.9155 -147.544
1 2.95534 14.2893 -147.634
1 3.06575 14.8083 -148.497
1 3.74462 15.0414 -149.046
1 2.92247 15.274 -149.486
1 2.16266 14.7777 -149.267
1 1.3701 14.7877 -149.852
1 1.32077 15.0043 -150.816
1 1.29227 15.7957 -150.267
1 1.13432 16.5675 -149.817
1 0.408978 16.5528 -149.2
1 0.233424 15.5845 -149.238
1 -0.0188417 15.5001 -150.155
1 -0.0723453 15.1642 -151.094
1 -0.0340064 14.9883 -152.053
1 -0.00792932 15.8342 -152.505
1 0.236162 15.3446 -153.297
1 0.208146 14.5418 -153.94
1 -0.311342 14.6429 -154.699
1 -1.2825 14.6794 -154.517
1 -2.00836 14.2351 -154.924
1 -2.71335 13.5889 -155.101
1 -2.37703 13.585 -156.072
1 -3.15125 13.0022 -156.015
1 -3.82907 13.1812 -155.352
1 -3.70532 12.8722 -154.466
1 -3.48268 13.5382 -153.794
1 -4.34556 13.4812 -153.406
1 -4.92738 12.9024 -153.841
1 -5.59134 13.5316 -153.742
1 -6.0745 14.2883 -153.168
1 -5.15685 14.6501 -153.372
1 -4.52181 15.2395 -153.016
1 -4.23312 15.8602 -152.365
1 -5.00569 16.5104 -152.084
1 -5.95635 16.5011 -151.813
1 -5.95995 17.3009 -152.365
1 -6.79768 17.6444 -152.195
1 -6.57509 18.5758 -152.332
1 -6.94032 18.4593 -151.488
1 -6.57023 18.113 -150.687
1 -6.37075 17.1378 -150.726
1 -6.69138 17.0584 -149.777
1 -6.26449 16.7485 -148.958
1 -5.97492 16.956 -148.101
1 -5.2204 17.4539 -147.757
1 -4.32322 17.8803 -147.764
1 -4.49243 18.8233 -147.541
1 -5.04609 18.8725 -146.738
1 -5.79418 19.4066 -146.994
1 -6.16636 20.285 -146.887
1 -6.22405 19.7466 -146.083
1 -6.67387 20.1403 -145.366
1 -6.35496 21.1155 -145.439
1 -7.25168 21.4981 -145.391
1 -8.05334 21.5186 -144.83
1 -8.28953 20.9495 -145.642
1 -8.03563 21.7585 -146.122
1 -8.64221 22.5353 -146.264
1 -9.03744 23.4073 -146.546
1 -9.43599 22.9442 -147.247
1 -9.49337 22.2258 -147.849
1 -8.68499 22.0979 -148.452
1 -8.06095 21.714 -149.038
1 -7.26239 21.7312 -149.545
1 -7.38138 20.8024 -149.596
1 -7.68333 21.1361 -150.452
1 -6.68508 21.0844 -150.388
1 -5.65954 21.4134 -150.534
1 -5.82535 22.4419 -150.569
1 -5.24646 23.1226 -151.109
1 -5.05799 22.9055 -150.186
1 -4.32834 22.2369 -150.248
1 -3.9312 22.7168 -151.094
1 -3.02824 22.9965 -150.87
1 -3.04838 23.4039 -149.913
1 -2.90663 22.4507 -149.86
1 -2.85364 21.9225 -149.048
1 -3.09213 21.126 -148.488
1 -3.44706 20.3012 -148.689
1 -2.86074 20.5386 -149.4
1 -1.81849 20.3589 -149.532
1 -0.847801 20.4858 -149.638
1 -0.0868173 21.131 -149.75
1 0.586254 21.4534 -149.189
1 0.62902 22.0838 -148.487
1 1.42349 21.5396 -148.362
1 2.28141 21.2263 -148.531
1 1.62107 20.5831 -148.869
1 1.0147 20.2864 -149.579
1 1.75347 19.702 -149.53
1 2.70731 19.5246 -149.837
1 3.38603 20.1871 -149.815
1 3.91122 19.6887 -149.215
1 4.54657 20.1191 -148.72
1 5.41218 20.2031 -148.293
1 6.24489 19.9285 -147.967
1 6.37283 20.446 -148.844
1 6.09173 19.7789 -149.52
1 5.48513 19.5508 -150.307
1 6.21059 19.9881 -150.746
1 6.44314 20.9117 -150.891
1 6.17043 20.9367 -149.871
1 6.54494 21.7521 -150.313
1 6.46207 22.6442 -150.731
1 5.85419 23.3043 -150.953
1 5.78115 22.8489 -151.821
1 5.37905 23.683 -152.284
1 4.92108 24.4728 -152.608
1 4.62651 25.0886 -152.024
1 4.34305 25.9862 -152.162
1 4.55112 25.5407 -153.01
1 3.81688 25.9897 -153.455
1 2.8984 26.1818 -153.701
1 2.11306 26.4289 -154.208
1 1.50333 26.5283 -154.966
1 0.938414 27.0387 -155.621
1 0.555952 26.2754 -156.019
1 0.196461 25.4672 -155.611
1 0.311345 25.0758 -156.511
1 1.15327 25.1532 -156.849
1 1.13252 24.9586 -155.849
1 0.618984 24.5629 -155.093
1 1.15854 23.9815 -155.658
1 1.6612 23.5585 -154.941
1 2.65434 23.74 -155.09
1 3.54296 23.5444 -154.646
1 3.34308 23.0303 -155.562
1 2.93018 22.6085 -154.802
1 2.68651 21.7432 -155.346
1 1.91404 21.85 -155.756
1 1.70327 21.823 -154.766
1 0.843013 22.0369 -155.223
1 0.711214 21.2511 -154.744
1 0.420796 20.3524 -154.785
1 0.47556 19.9413 -153.896
1 0.395821 20.3096 -152.965
1 0.746179 19.4961 -152.678
1 0.749853 19.1599 -151.764
1 0.835783 18.4507 -151.089
1 1.15721 17.5602 -151.113
1 1.93649 17.8397 -151.542
1 2.53919 18.1884 -152.195
1 1.88757 17.5567 -152.616
1 2.20496 16.6538 -152.851
1 1.70322 16.1386 -153.459
1 1.70471 15.0956 -153.429
1 1.88863 14.2244 -153.133
1 2.0794 13.3961 -153.592
1 1.16769 13.5746 -153.365
1 0.749151 13.3164 -152.54
1 -0.00384211 13.6945 -152.055
1 -0.846833 13.9511 -151.665
1 -1.4925 14.1995 -151.001
1 -1.20255 15.0499 -151.441
1 -0.974805 15.8451 -150.871
1 -1.06468 16.6887 -150.354
1 -1.31207 17.337 -149.707
1 -1.063 18.0259 -149.059
1 -0.612541 17.8655 -148.169
1 -0.405229 18.6198 -147.656
1 -0.0974509 18.9232 -146.793
1 0.0583946 19.0469 -145.873
1 0.0787193 18.6467 -144.958
1 -0.573597 18.8637 -144.355
1 -0.138099 19.5957 -143.859
1 0.266168 18.949 -143.268
1 0.233572 18.0446 -142.928
1 0.713998 17.4414 -142.298
1 0.0199282 17.4378 -141.59
1 -0.918619 17.6041 -141.264
1 -1.55571 17.7639 -140.6
1 -2.10111 16.9756 -140.52
1 -2.15576 16.0471 -140.731
1 -1.90116 15.3628 -140.123
1 -1.04128 14.9254 -140.049
1 -0.406456 15.0664 -139.298
1 0.495409 14.666 -139.188
1 0.978858 15.2046 -138.602
1 1.55377 15.9302 -138.752
1 2.16391 15.7602 -137.977
1 1.81421 15.4929 -137.201
1 2.50024 16.2427 -137.094
1 1.94449 16.9558 -137.006
1 2.47734 17.1344 -136.284
1 2.54197 16.2116 -135.944
1 2.17907 15.3902 -135.601
1 2.37156 15.9508 -134.856
1 2.531 16.4035 -134.076
1 2.39296 16.8475 -133.187
1 2.74732 17.0033 -132.263
1 3.2516 17.1654 -131.466
1 4.00514 17.1517 -130.506
1 4.66746 17.3447 -129.318
1 6.04216 17.4733 -127.269
2 13.525 18.6511 -115.506
400
Atoms. Timestep: 220000
2 0 0 -190
1 7.29371 2.40331 -178.273
1 8.58299 2.8152 -176.196
1 9.28938 3.12304 -175.045
1 9.96898 3.2335 -174.051
1 10.4521 3.59822 -173.255
1 10.8621 3.86506 -172.411
1 11.5457 4.3806 -172.037
1 11.9393 5.08947 -171.524
1 12.8744 5.00951 -171.514
1 12.8109 5.088 -170.573
1 12.1624 4.41947 -170.768
1 11.3184 4.57161 -170.335
1 11.862 5.27989 -170.178
1 11.151 5.43829 -169.42
1 10.1594 5.57765 -169.415
1 9.85158 5.42498 -168.51
1 10.5132 5.91595 -168.055
1 11.4219 6.16088 -167.779
1 12.2659 6.66172 -167.752
1 12.6864 5.82195 -168.064
1 13.4177 6.20153 -167.622
1 13.237 7.0729 -168.008
1 12.7508 7.86999 -167.892
1 12.9526 8.54667 -168.549
1 12.2089 8.18963 -168.957
1 11.4248 7.67314 -168.956
1 10.7533 8.35419 -169.084
1 10.6399 8.09943 -170.006
1 10.1896 7.32957 -170.339
1 9.97346 6.70146 -169.61
1 9.15873 6.44385 -170.109
1 8.35961 7.00568 -170.188
1 8.0031 6.81015 -169.309
1 8.25665 7.25123 -168.445
1 8.96644 6.86996 -167.956
1 9.36911 7.26174 -167.095
1 8.85792 7.42179 -166.321
1 8.19539 6.80947 -166.579
1 7.27316 7.19891 -166.694
1 6.31618 7.12134 -166.582
1 6.40226 8.06603 -166.668
1 6.5293 8.2068 -167.673
1 7.24272 8.30158 -168.324
1 7.08129 9.17465 -167.898
1 8.05273 8.88631 -167.862
1 8.37914 8.4778 -167.1
1 8.78946 8.6952 -166.295
1 9.1197 8.56526 -165.361
1 9.79914 9.21503 -165.177
1 10.3322 8.66878 -164.55
1 10.8631 9.55441 -164.628
1 10.5948 9.35195 -163.701
1 10.9979 8.76085 -163.05
1 10.5106 9.24564 -162.443
1 10.9175 10.024 -162.78
1 11.3273 10.4809 -162.004
1 10.6612 11.1789 -161.789
1 9.79007 10.9313 -162.215
1 9.46349 10.1455 -162.758
1 8.78489 10.4332 -163.366
1 9.2047 9.83086 -163.974
1 9.21479 10.6991 -164.483
1 9.65548 10.9233 -165.339
1 10.3322 11.3065 -165.932
1 9.95421 12.1611 -166.028
1 9.43398 12.3592 -166.799
1 8.53993 12.6055 -166.78
1 7.66444 12.311 -166.427
1 7.45992 11.6811 -167.097
1 7.79001 10.7955 -167.585
1 8.45963 11.4595 -167.405
1 8.15996 12.1312 -168
1 7.75838 11.3797 -168.512
1 7.20462 10.9163 -169.152
1 6.94698 11.7043 -169.555
1 7.76599 11.7627 -170.026
1 8.64405 11.8549 -170.476
1 9.48175 12.2516 -170.225
1 9.67687 12.6582 -169.368
1 10.2549 13.0797 -168.725
1 9.58425 13.1362 -167.957
1 9.69163 13.714 -167.136
1 10.077 14.5215 -167.525
1 10.9765 14.6522 -167.209
1 10.5024 14.9428 -166.337
1 10.02 15.529 -165.812
1 10.2036 14.6755 -165.406
1 9.33453 14.6925 -164.963
1 8.50654 15.1173 -165.091
1 8.63668 14.9784 -164.096
1 7.81725 14.4752 -163.871
1 6.90805 14.1873 -163.656
1 6.81881 13.2965 -163.535
1 6.02223 13.6786 -163.15
1 5.40814 13.404 -162.448
1 4.95498 14.1899 -162.73
1 4.38981 14.018 -163.531
1 3.49773 14.3462 -163.459
1 2.81173 14.9585 -163.807
1 2.46808 14.0846 -163.48
1 2.35741 13.6478 -162.66
1 1.51199 13.1867 -162.597
1 0.720531 13.1594 -162.05
1 0.164824 12.7076 -162.738
1 -0.51048 13.1894 -162.172
1 0.13587 13.7655 -162.695
1 0.6338 14.5889 -162.805
1 0.902467 15.3551 -162.286
1 1.1678 15.6791 -161.47
1 0.410727 16.157 -161.863
1 -0.393312 16.3148 -161.402
1 -0.839374 15.4895 -161.191
1 -1.14983 15.5496 -160.342
1 -0.258038 15.2171 -160.144
1 -0.339567 16.1435 -160.313
1 -0.435489 17.1151 -160.182
1 -1.23938 16.7041 -159.925
1 -1.76808 17.5091 -159.858
1 -2.48408 17.532 -159.2
1 -2.42338 16.5195 -158.984
1 -2.46072 16.4915 -158.053
1 -2.84847 15.7902 -157.442
1 -3.02115 16.0267 -156.568
1 -3.937 15.982 -156.646
1 -4.22258 16.1508 -155.739
1 -4.02952 15.8376 -154.838
1 -4.78048 15.1952 -155.079
1 -5.73221 15.4119 -155.307
1 -5.43568 15.6713 -154.417
1 -6.22695 15.3007 -153.939
1 -5.68598 14.7481 -153.424
1 -5.2115 14.0095 -152.883
1 -5.07829 13.501 -153.653
1 -4.39118 14.1354 -153.796
1 -3.54899 13.8888 -153.412
1 -2.99811 14.349 -152.719
1 -2.51302 14.7274 -151.953
1 -2.03674 14.3532 -151.227
1 -2.52317 14.216 -150.437
1 -3.41747 14.16 -150.689
1 -3.84862 13.7779 -149.993
1 -3.80397 14.7182 -149.816
1 -4.65956 14.2928 -149.553
1 -4.69645 15.1606 -149.118
1 -5.42227 15.8456 -149.086
1 -5.12418 16.6597 -148.714
1 -5.54789 17.4996 -148.687
1 -6.01565 18.0865 -148.115
1 -5.39612 18.1111 -147.35
1 -4.53127 18.4812 -147.702
1 -3.70098 18.147 -147.282
1 -3.33837 18.579 -146.567
1 -3.58162 18.7443 -145.623
1 -3.09152 19.183 -144.955
1 -3.72543 18.7878 -144.295
1 -4.67651 18.422 -144.146
1 -5.08898 17.9976 -144.938
1 -5.82489 18.019 -144.205
1 -5.99146 18.6127 -143.427
1 -5.48754 17.957 -142.968
1 -4.85174 18.3882 -142.309
1 -5.10915 18.6292 -141.432
1 -4.56606 18.5325 -140.677
1 -4.52505 19.4611 -141.083
1 -4.19097 19.6175 -140.237
1 -3.34377 20.0829 -140.236
1 -2.51436 19.6248 -140.425
1 -2.27019 19.7814 -141.336
1 -1.54516 19.3599 -141.808
1 -0.938923 18.5148 -141.75
1 -0.191652 18.0018 -141.812
1 -0.494238 17.7512 -140.901
1 -0.859006 17.8769 -139.982
1 -0.437213 17.4964 -139.226
1 -1.12491 17.8743 -138.703
1 -1.21245 17.0129 -138.228
1 -0.732733 16.1755 -138.398
1 -0.581095 15.2374 -138.219
1 -0.270239 14.4294 -138.789
1 0.39524 13.6987 -138.989
1 0.153592 13.6637 -138.076
1 0.39246 14.1346 -137.239
1 -0.436422 14.6511 -137.107
1 -0.211699 14.0001 -136.45
1 0.641601 13.9174 -135.907
1 1.311 14.2421 -136.46
1 1.4983 14.6133 -135.616
1 1.76338 13.8338 -135.024
1 1.68598 13.2061 -134.328
1 0.762583 13.2437 -133.977
1 -0.0058531 13.1547 -133.48
1 0.126437 13.3579 -132.528
1 1.02787 13.2825 -132.85
1 1.67557 13.9003 -133.088
1 2.2875 13.1933 -133.399
1 2.98133 13.478 -132.697
1 2.54117 14.2392 -132.202
1 2.62487 14.9172 -131.536
1 2.77729 15.7051 -132.092
1 2.89324 16.4624 -132.753
1 2.54227 15.658 -133.154
1 1.76663 15.731 -133.767
1 1.04129 15.5442 -134.389
1 0.305189 15.2788 -133.816
1 -0.141161 15.6041 -133.045
1 0.110542 16.2973 -133.573
1 -0.0452255 17.2732 -133.706
1 0.556136 18.041 -133.354
1 0.577092 18.9626 -133.779
1 0.0185063 18.392 -134.339
1 -0.473862 19.1684 -134.672
1 -1.10416 18.8406 -135.379
1 -1.69933 19.5531 -135.142
1 -2.26101 20.3199 -135.23
1 -2.08196 21.2113 -135.044
1 -2.37313 21.3308 -135.951
1 -2.37085 20.6973 -136.69
1 -2.50569 20.815 -137.682
1 -2.33754 21.5984 -137.178
1 -1.5012 21.8292 -137.705
1 -0.58068 21.5842 -137.667
1 -0.451242 20.8806 -138.318
1 0.411485 21.1873 -138.462
1 -0.0732216 22.0287 -138.625
1 0.32874 22.1214 -139.555
1 0.759443 21.2634 -139.912
1 1.17493 21.7871 -140.556
1 1.5538 20.9287 -140.71
1 1.57201 20.8174 -141.646
1 1.54205 20.188 -142.317
1 2.0995 20.7611 -142.888
1 2.67901 20.0409 -142.683
1 3.39168 19.4092 -142.696
1 3.60844 19.1005 -141.841
1 3.8884 19.285 -140.91
1 4.29089 18.7537 -140.271
1 4.46196 18.6739 -139.343
1 4.34421 17.992 -138.686
1 3.79047 17.4333 -139.236
1 4.10561 16.8976 -140.063
1 4.0993 17.5467 -140.73
1 4.20528 16.7586 -141.249
1 4.06692 16.2228 -142.004
1 4.85495 16.7175 -142.111
1 4.50983 16.5145 -143.016
1 4.46863 15.6987 -143.577
1 5.28727 15.9957 -144.109
1 4.87193 16.8508 -144.046
1 5.54063 16.7397 -144.684
1 6.40108 16.418 -144.609
1 6.88874 16.5299 -145.533
1 7.06943 17.3168 -146.124
1 6.17529 17.4574 -146.345
1 5.88619 17.0266 -147.182
1 5.25171 16.9884 -147.888
1 5.10896 16.3822 -148.645
1 4.26427 16.0985 -148.44
1 3.57561 15.4066 -148.432
1 2.67269 15.2199 -148.08
1 1.93605 14.7006 -148.39
1 1.46279 14.5895 -147.563
1 0.548628 14.4197 -147.733
1 -0.374791 14.4283 -147.584
1 -0.0293398 15.1833 -147.094
1 -0.992745 15.4965 -147.282
1 -1.59006 15.9616 -146.673
1 -2.51643 15.7459 -146.631
1 -2.40702 16.5964 -147.186
1 -3.29466 16.2829 -147.181
1 -3.43923 15.3431 -147.205
1 -4.13638 15.8423 -146.688
1 -4.26879 15.7768 -145.759
1 -3.92333 15.637 -144.88
1 -3.8608 16.4197 -144.297
1 -4.20816 16.0972 -143.502
1 -5.09901 15.8426 -143.024
1 -5.92176 15.4182 -143.314
1 -6.00055 14.8458 -144.073
1 -5.81258 14.7136 -145.031
1 -5.68743 15.6471 -145.042
1 -5.4851 16.0988 -144.244
1 -5.78398 16.9015 -144.729
1 -6.63888 16.5561 -145.03
1 -7.52527 16.2676 -144.944
1 -7.6082 16.0343 -144.006
1 -8.45218 15.6918 -144.405
1 -8.67285 16.5181 -144.863
1 -9.2373 15.7735 -145.188
1 -9.75229 15.7831 -145.965
1 -10.3694 16.5327 -145.904
1 -10.5237 16.337 -146.881
1 -9.88805 16.9777 -147.224
1 -9.13322 17.5353 -147.36
1 -8.58694 18.331 -147.614
1 -9.4817 18.7768 -147.736
1 -10.0505 19.5338 -147.597
1 -9.39641 20.1251 -147.273
1 -8.58801 20.5775 -147.448
1 -7.88642 20.6737 -146.831
1 -8.0215 21.5495 -146.405
1 -7.85763 22.3354 -145.744